[Molden Format]
[Title]
 benzene-pople
[Atoms] AU
C    1   6       0.000000007510930420      2.631894990000000156      0.000000000000000000
C    2   6       2.279287919999999801      1.315947490000000109      0.000000000000000000
C    3   6       2.279287919999999801     -1.315947500000000048      0.000000000000000000
C    4   6      -0.000000007510930700     -2.631894990000000156      0.000000000000000000
C    5   6      -2.279287919999999801     -1.315947490000000109      0.000000000000000000
C    6   6      -2.279287919999999801      1.315947500000000048      0.000000000000000000
H    7   1       0.000000013369681300      4.684851970000000421      0.000000000000000000
H    8   1       4.057200830000000202      2.342425969999999857      0.000000000000000000
H    9   1       4.057200810000000324     -2.342426000000000119      0.000000000000000000
H   10   1      -0.000000013369681800     -4.684851970000000421      0.000000000000000000
H   11   1      -4.057200830000000202     -2.342425969999999857      0.000000000000000000
H   12   1      -4.057200810000000324      2.342426000000000119      0.000000000000000000

[5D10F]
[GTO]
  1 0
 s    6 1.00
     4563.2400000000         0.0019666503
      682.0240000000         0.0152306019
      154.9730000000         0.0761269097
       44.4553000000         0.2608010330
       13.0290000000         0.6164620780
        1.8277300000         0.2210060280
 s    3 1.00
       20.9642000000         0.1146600810
        4.8033100000         0.9199996480
        1.4593300000        -0.0030306821
 p    3 1.00
       20.9642000000         0.0402486927
        4.8033100000         0.2375939570
        1.4593300000         0.8158538510
 s    1 1.00
        0.4834560000         1.0000000000
 p    1 1.00
        0.4834560000         1.0000000000
 s    1 1.00
        0.1455850000         1.0000000000
 p    1 1.00
        0.1455850000         1.0000000000
 d    1 1.00
        0.6260000000         1.0000000000

  2 0
 s    6 1.00
     4563.2400000000         0.0019666503
      682.0240000000         0.0152306019
      154.9730000000         0.0761269097
       44.4553000000         0.2608010330
       13.0290000000         0.6164620780
        1.8277300000         0.2210060280
 s    3 1.00
       20.9642000000         0.1146600810
        4.8033100000         0.9199996480
        1.4593300000        -0.0030306821
 p    3 1.00
       20.9642000000         0.0402486927
        4.8033100000         0.2375939570
        1.4593300000         0.8158538510
 s    1 1.00
        0.4834560000         1.0000000000
 p    1 1.00
        0.4834560000         1.0000000000
 s    1 1.00
        0.1455850000         1.0000000000
 p    1 1.00
        0.1455850000         1.0000000000
 d    1 1.00
        0.6260000000         1.0000000000

  3 0
 s    6 1.00
     4563.2400000000         0.0019666503
      682.0240000000         0.0152306019
      154.9730000000         0.0761269097
       44.4553000000         0.2608010330
       13.0290000000         0.6164620780
        1.8277300000         0.2210060280
 s    3 1.00
       20.9642000000         0.1146600810
        4.8033100000         0.9199996480
        1.4593300000        -0.0030306821
 p    3 1.00
       20.9642000000         0.0402486927
        4.8033100000         0.2375939570
        1.4593300000         0.8158538510
 s    1 1.00
        0.4834560000         1.0000000000
 p    1 1.00
        0.4834560000         1.0000000000
 s    1 1.00
        0.1455850000         1.0000000000
 p    1 1.00
        0.1455850000         1.0000000000
 d    1 1.00
        0.6260000000         1.0000000000

  4 0
 s    6 1.00
     4563.2400000000         0.0019666503
      682.0240000000         0.0152306019
      154.9730000000         0.0761269097
       44.4553000000         0.2608010330
       13.0290000000         0.6164620780
        1.8277300000         0.2210060280
 s    3 1.00
       20.9642000000         0.1146600810
        4.8033100000         0.9199996480
        1.4593300000        -0.0030306821
 p    3 1.00
       20.9642000000         0.0402486927
        4.8033100000         0.2375939570
        1.4593300000         0.8158538510
 s    1 1.00
        0.4834560000         1.0000000000
 p    1 1.00
        0.4834560000         1.0000000000
 s    1 1.00
        0.1455850000         1.0000000000
 p    1 1.00
        0.1455850000         1.0000000000
 d    1 1.00
        0.6260000000         1.0000000000

  5 0
 s    6 1.00
     4563.2400000000         0.0019666503
      682.0240000000         0.0152306019
      154.9730000000         0.0761269097
       44.4553000000         0.2608010330
       13.0290000000         0.6164620780
        1.8277300000         0.2210060280
 s    3 1.00
       20.9642000000         0.1146600810
        4.8033100000         0.9199996480
        1.4593300000        -0.0030306821
 p    3 1.00
       20.9642000000         0.0402486927
        4.8033100000         0.2375939570
        1.4593300000         0.8158538510
 s    1 1.00
        0.4834560000         1.0000000000
 p    1 1.00
        0.4834560000         1.0000000000
 s    1 1.00
        0.1455850000         1.0000000000
 p    1 1.00
        0.1455850000         1.0000000000
 d    1 1.00
        0.6260000000         1.0000000000

  6 0
 s    6 1.00
     4563.2400000000         0.0019666503
      682.0240000000         0.0152306019
      154.9730000000         0.0761269097
       44.4553000000         0.2608010330
       13.0290000000         0.6164620780
        1.8277300000         0.2210060280
 s    3 1.00
       20.9642000000         0.1146600810
        4.8033100000         0.9199996480
        1.4593300000        -0.0030306821
 p    3 1.00
       20.9642000000         0.0402486927
        4.8033100000         0.2375939570
        1.4593300000         0.8158538510
 s    1 1.00
        0.4834560000         1.0000000000
 p    1 1.00
        0.4834560000         1.0000000000
 s    1 1.00
        0.1455850000         1.0000000000
 p    1 1.00
        0.1455850000         1.0000000000
 d    1 1.00
        0.6260000000         1.0000000000

  7 0
 s    3 1.00
       33.8650000000         0.0254938145
        5.0947900000         0.1903731090
        1.1587900000         0.8521614860
 s    1 1.00
        0.3258400000         1.0000000000
 s    1 1.00
        0.1027410000         1.0000000000
 p    1 1.00
        0.7500000000         1.0000000000

  8 0
 s    3 1.00
       33.8650000000         0.0254938145
        5.0947900000         0.1903731090
        1.1587900000         0.8521614860
 s    1 1.00
        0.3258400000         1.0000000000
 s    1 1.00
        0.1027410000         1.0000000000
 p    1 1.00
        0.7500000000         1.0000000000

  9 0
 s    3 1.00
       33.8650000000         0.0254938145
        5.0947900000         0.1903731090
        1.1587900000         0.8521614860
 s    1 1.00
        0.3258400000         1.0000000000
 s    1 1.00
        0.1027410000         1.0000000000
 p    1 1.00
        0.7500000000         1.0000000000

 10 0
 s    3 1.00
       33.8650000000         0.0254938145
        5.0947900000         0.1903731090
        1.1587900000         0.8521614860
 s    1 1.00
        0.3258400000         1.0000000000
 s    1 1.00
        0.1027410000         1.0000000000
 p    1 1.00
        0.7500000000         1.0000000000

 11 0
 s    3 1.00
       33.8650000000         0.0254938145
        5.0947900000         0.1903731090
        1.1587900000         0.8521614860
 s    1 1.00
        0.3258400000         1.0000000000
 s    1 1.00
        0.1027410000         1.0000000000
 p    1 1.00
        0.7500000000         1.0000000000

 12 0
 s    3 1.00
       33.8650000000         0.0254938145
        5.0947900000         0.1903731090
        1.1587900000         0.8521614860
 s    1 1.00
        0.3258400000         1.0000000000
 s    1 1.00
        0.1027410000         1.0000000000
 p    1 1.00
        0.7500000000         1.0000000000

[MO]
 Ene= -1.02261778999999997e+01
 Sym= 1a
 Spin= Alpha
 Occup= 2.00000000000000000e+00
   1 2.29819631999999996e-01
   2 1.89259260000000012e-01
   3 0.00000000000000000e+00
   4 -2.75074631000000016e-04
   5 0.00000000000000000e+00
   6 6.21339179999999981e-03
   7 0.00000000000000000e+00
   8 1.53465224999999993e-03
   9 0.00000000000000000e+00
  10 -1.68526663999999998e-03
  11 0.00000000000000000e+00
  12 -1.62033726000000011e-04
  13 0.00000000000000000e+00
  14 -2.92235184999999975e-04
  15 0.00000000000000000e+00
  16 0.00000000000000000e+00
  17 -7.86759902000000021e-04
  18 0.00000000000000000e+00
  19 2.29927492000000011e-01
  20 1.89347950999999987e-01
  21 -2.38081475000000012e-04
  22 -1.37576083000000006e-04
  23 0.00000000000000000e+00
  24 6.21675762999999992e-03
  25 1.32854266000000001e-03
  26 7.67432454999999992e-04
  27 0.00000000000000000e+00
  28 -1.68722504999999990e-03
  29 -1.39113036999999996e-04
  30 -8.04223975999999991e-05
  31 0.00000000000000000e+00
  32 -2.92688277000000018e-04
  33 0.00000000000000000e+00
  34 0.00000000000000000e+00
  35 3.93456318000000012e-04
  36 6.81131920999999974e-04
  37 2.29927492000000011e-01
  38 1.89347950999999987e-01
  39 -2.38081475000000012e-04
  40 1.37576083000000006e-04
  41 0.00000000000000000e+00
  42 6.21675762999999992e-03
  43 1.32854266000000001e-03
  44 -7.67432454999999992e-04
  45 0.00000000000000000e+00
  46 -1.68722504999999990e-03
  47 -1.39113036999999996e-04
  48 8.04223975999999991e-05
  49 0.00000000000000000e+00
  50 -2.92688277000000018e-04
  51 0.00000000000000000e+00
  52 0.00000000000000000e+00
  53 3.93456318000000012e-04
  54 -6.81131920999999974e-04
  55 2.29819631999999996e-01
  56 1.89259260000000012e-01
  57 0.00000000000000000e+00
  58 2.75074631000000016e-04
  59 0.00000000000000000e+00
  60 6.21339179999999981e-03
  61 0.00000000000000000e+00
  62 -1.53465224999999993e-03
  63 0.00000000000000000e+00
  64 -1.68526663999999998e-03
  65 0.00000000000000000e+00
  66 1.62033726000000011e-04
  67 0.00000000000000000e+00
  68 -2.92235184999999975e-04
  69 0.00000000000000000e+00
  70 0.00000000000000000e+00
  71 -7.86759902000000021e-04
  72 0.00000000000000000e+00
  73 2.29927492000000011e-01
  74 1.89347950999999987e-01
  75 2.38081475000000012e-04
  76 1.37576083000000006e-04
  77 0.00000000000000000e+00
  78 6.21675762999999992e-03
  79 -1.32854266000000001e-03
  80 -7.67432454999999992e-04
  81 0.00000000000000000e+00
  82 -1.68722504999999990e-03
  83 1.39113036999999996e-04
  84 8.04223975999999991e-05
  85 0.00000000000000000e+00
  86 -2.92688277000000018e-04
  87 0.00000000000000000e+00
  88 0.00000000000000000e+00
  89 3.93456318000000012e-04
  90 6.81131920999999974e-04
  91 2.29927492000000011e-01
  92 1.89347950999999987e-01
  93 2.38081475000000012e-04
  94 -1.37576083000000006e-04
  95 0.00000000000000000e+00
  96 6.21675762999999992e-03
  97 -1.32854266000000001e-03
  98 7.67432454999999992e-04
  99 0.00000000000000000e+00
 100 -1.68722504999999990e-03
 101 1.39113036999999996e-04
 102 -8.04223975999999991e-05
 103 0.00000000000000000e+00
 104 -2.92688277000000018e-04
 105 0.00000000000000000e+00
 106 0.00000000000000000e+00
 107 3.93456318000000012e-04
 108 -6.81131920999999974e-04
 109 -9.40070465000000002e-05
 110 -1.93953426999999992e-03
 111 1.09953979999999991e-03
 112 0.00000000000000000e+00
 113 1.29480213999999994e-03
 114 0.00000000000000000e+00
 115 -9.39055371999999951e-05
 116 -1.94029631000000005e-03
 117 1.09947709000000004e-03
 118 1.12159823000000007e-03
 119 6.47564572999999983e-04
 120 0.00000000000000000e+00
 121 -9.39055371999999951e-05
 122 -1.94029631000000005e-03
 123 1.09947709000000004e-03
 124 1.12159823000000007e-03
 125 -6.47564572999999983e-04
 126 0.00000000000000000e+00
 127 -9.40070465000000002e-05
 128 -1.93953426999999992e-03
 129 1.09953979999999991e-03
 130 0.00000000000000000e+00
 131 -1.29480213999999994e-03
 132 0.00000000000000000e+00
 133 -9.39055371999999951e-05
 134 -1.94029631000000005e-03
 135 1.09947709000000004e-03
 136 -1.12159823000000007e-03
 137 -6.47564572999999983e-04
 138 0.00000000000000000e+00
 139 -9.39055371999999951e-05
 140 -1.94029631000000005e-03
 141 1.09947709000000004e-03
 142 -1.12159823000000007e-03
 143 6.47564572999999983e-04
 144 0.00000000000000000e+00
 Ene= -1.02259107000000000e+01
 Sym= 1a
 Spin= Alpha
 Occup= 2.00000000000000000e+00
   1 0.00000000000000000e+00
   2 0.00000000000000000e+00
   3 7.74768762999999993e-04
   4 0.00000000000000000e+00
   5 0.00000000000000000e+00
   6 0.00000000000000000e+00
   7 -3.42452919000000005e-03
   8 0.00000000000000000e+00
   9 0.00000000000000000e+00
  10 0.00000000000000000e+00
  11 1.31180013000000003e-04
  12 0.00000000000000000e+00
  13 0.00000000000000000e+00
  14 0.00000000000000000e+00
  15 0.00000000000000000e+00
  16 0.00000000000000000e+00
  17 0.00000000000000000e+00
  18 1.71480648999999992e-03
  19 2.81607445000000012e-01
  20 2.31650340000000010e-01
  21 1.64169621999999988e-04
  22 -3.52533944000000003e-04
  23 0.00000000000000000e+00
  24 8.77780497000000062e-03
  25 -8.97143332999999956e-04
  26 1.45918865999999990e-03
  27 0.00000000000000000e+00
  28 -1.95961414999999998e-03
  29 1.36643428000000010e-03
  30 7.13173715999999955e-04
  31 0.00000000000000000e+00
  32 -6.09391725999999952e-04
  33 0.00000000000000000e+00
  34 0.00000000000000000e+00
  35 8.25808809000000052e-04
  36 -2.84463838999999999e-04
  37 2.81607445000000012e-01
  38 2.31650340000000010e-01
  39 1.64169621999999988e-04
  40 3.52533944000000003e-04
  41 0.00000000000000000e+00
  42 8.77780497000000062e-03
  43 -8.97143332999999956e-04
  44 -1.45918865999999990e-03
  45 0.00000000000000000e+00
  46 -1.95961414999999998e-03
  47 1.36643428000000010e-03
  48 -7.13173715999999955e-04
  49 0.00000000000000000e+00
  50 -6.09391725999999952e-04
  51 0.00000000000000000e+00
  52 0.00000000000000000e+00
  53 8.25808809000000052e-04
  54 2.84463838999999999e-04
  55 0.00000000000000000e+00
  56 0.00000000000000000e+00
  57 7.74768762999999993e-04
  58 0.00000000000000000e+00
  59 0.00000000000000000e+00
  60 0.00000000000000000e+00
  61 -3.42452919000000005e-03
  62 0.00000000000000000e+00
  63 0.00000000000000000e+00
  64 0.00000000000000000e+00
  65 1.31180013000000003e-04
  66 0.00000000000000000e+00
  67 0.00000000000000000e+00
  68 0.00000000000000000e+00
  69 0.00000000000000000e+00
  70 0.00000000000000000e+00
  71 0.00000000000000000e+00
  72 -1.71480648999999992e-03
  73 -2.81607445000000012e-01
  74 -2.31650340000000010e-01
  75 1.64169621999999988e-04
  76 -3.52533944000000003e-04
  77 0.00000000000000000e+00
  78 -8.77780497000000062e-03
  79 -8.97143332999999956e-04
  80 1.45918865999999990e-03
  81 0.00000000000000000e+00
  82 1.95961414999999998e-03
  83 1.36643428000000010e-03
  84 7.13173715999999955e-04
  85 0.00000000000000000e+00
  86 6.09391725999999952e-04
  87 0.00000000000000000e+00
  88 0.00000000000000000e+00
  89 -8.25808809000000052e-04
  90 2.84463838999999999e-04
  91 -2.81607445000000012e-01
  92 -2.31650340000000010e-01
  93 1.64169621999999988e-04
  94 3.52533944000000003e-04
  95 0.00000000000000000e+00
  96 -8.77780497000000062e-03
  97 -8.97143332999999956e-04
  98 -1.45918865999999990e-03
  99 0.00000000000000000e+00
 100 1.95961414999999998e-03
 101 1.36643428000000010e-03
 102 -7.13173715999999955e-04
 103 0.00000000000000000e+00
 104 6.09391725999999952e-04
 105 0.00000000000000000e+00
 106 0.00000000000000000e+00
 107 -8.25808809000000052e-04
 108 -2.84463838999999999e-04
 109 0.00000000000000000e+00
 110 0.00000000000000000e+00
 111 0.00000000000000000e+00
 112 -4.80248540000000025e-05
 113 0.00000000000000000e+00
 114 0.00000000000000000e+00
 115 1.80988004999999989e-04
 116 -2.24624469999999991e-03
 117 4.29237341000000003e-04
 118 9.45086251000000011e-04
 119 5.73372984000000024e-04
 120 0.00000000000000000e+00
 121 1.80988004999999989e-04
 122 -2.24624469999999991e-03
 123 4.29237341000000003e-04
 124 9.45086251000000011e-04
 125 -5.73372984000000024e-04
 126 0.00000000000000000e+00
 127 0.00000000000000000e+00
 128 0.00000000000000000e+00
 129 0.00000000000000000e+00
 130 -4.80248540000000025e-05
 131 0.00000000000000000e+00
 132 0.00000000000000000e+00
 133 -1.80988004999999989e-04
 134 2.24624469999999991e-03
 135 -4.29237341000000003e-04
 136 9.45086251000000011e-04
 137 5.73372984000000024e-04
 138 0.00000000000000000e+00
 139 -1.80988004999999989e-04
 140 2.24624469999999991e-03
 141 -4.29237341000000003e-04
 142 9.45086251000000011e-04
 143 -5.73372984000000024e-04
 144 0.00000000000000000e+00
 Ene= -1.02259104000000001e+01
 Sym= 1a
 Spin= Alpha
 Occup= 2.00000000000000000e+00
   1 3.25122997999999996e-01
   2 2.67446265000000016e-01
   3 0.00000000000000000e+00
   4 -3.94258839000000027e-05
   5 0.00000000000000000e+00
   6 1.01340936999999992e-02
   7 0.00000000000000000e+00
   8 -5.45132520000000007e-05
   9 0.00000000000000000e+00
  10 -2.25869303999999983e-03
  11 0.00000000000000000e+00
  12 1.77579890999999992e-03
  13 0.00000000000000000e+00
  14 -7.03428759999999973e-04
  15 0.00000000000000000e+00
  16 0.00000000000000000e+00
  17 -1.92388798999999994e-04
  18 0.00000000000000000e+00
  19 1.62635396999999987e-01
  20 1.33783876999999995e-01
  21 -3.52480503000000009e-04
  22 5.71261672000000016e-04
  23 0.00000000000000000e+00
  24 5.06951578999999958e-03
  25 1.45904757000000010e-03
  26 -2.58214451999999985e-03
  27 0.00000000000000000e+00
  28 -1.13546033999999997e-03
  29 7.15239112999999983e-04
  30 5.44122984000000045e-04
  31 0.00000000000000000e+00
  32 -3.52068690999999981e-04
  33 0.00000000000000000e+00
  34 0.00000000000000000e+00
  35 -1.23805984000000002e-03
  36 8.25748186999999967e-04
  37 -1.62635396999999987e-01
  38 -1.33783876999999995e-01
  39 3.52480503000000009e-04
  40 5.71261672000000016e-04
  41 0.00000000000000000e+00
  42 -5.06951578999999958e-03
  43 -1.45904757000000010e-03
  44 -2.58214451999999985e-03
  45 0.00000000000000000e+00
  46 1.13546033999999997e-03
  47 -7.15239112999999983e-04
  48 5.44122984000000045e-04
  49 0.00000000000000000e+00
  50 3.52068690999999981e-04
  51 0.00000000000000000e+00
  52 0.00000000000000000e+00
  53 1.23805984000000002e-03
  54 8.25748186999999967e-04
  55 -3.25122997999999996e-01
  56 -2.67446265000000016e-01
  57 0.00000000000000000e+00
  58 -3.94258839000000027e-05
  59 0.00000000000000000e+00
  60 -1.01340936999999992e-02
  61 0.00000000000000000e+00
  62 -5.45132520000000007e-05
  63 0.00000000000000000e+00
  64 2.25869303999999983e-03
  65 0.00000000000000000e+00
  66 1.77579890999999992e-03
  67 0.00000000000000000e+00
  68 7.03428759999999973e-04
  69 0.00000000000000000e+00
  70 0.00000000000000000e+00
  71 1.92388798999999994e-04
  72 0.00000000000000000e+00
  73 -1.62635396999999987e-01
  74 -1.33783876999999995e-01
  75 -3.52480503000000009e-04
  76 5.71261672000000016e-04
  77 0.00000000000000000e+00
  78 -5.06951578999999958e-03
  79 1.45904757000000010e-03
  80 -2.58214451999999985e-03
  81 0.00000000000000000e+00
  82 1.13546033999999997e-03
  83 7.15239112999999983e-04
  84 5.44122984000000045e-04
  85 0.00000000000000000e+00
  86 3.52068690999999981e-04
  87 0.00000000000000000e+00
  88 0.00000000000000000e+00
  89 1.23805984000000002e-03
  90 -8.25748186999999967e-04
  91 1.62635396999999987e-01
  92 1.33783876999999995e-01
  93 3.52480503000000009e-04
  94 5.71261672000000016e-04
  95 0.00000000000000000e+00
  96 5.06951578999999958e-03
  97 -1.45904757000000010e-03
  98 -2.58214451999999985e-03
  99 0.00000000000000000e+00
 100 -1.13546033999999997e-03
 101 -7.15239112999999983e-04
 102 5.44122984000000045e-04
 103 0.00000000000000000e+00
 104 -3.52068690999999981e-04
 105 0.00000000000000000e+00
 106 0.00000000000000000e+00
 107 -1.23805984000000002e-03
 108 -8.25748186999999967e-04
 109 2.08918893000000004e-04
 110 -2.59318316000000000e-03
 111 4.95970827000000039e-04
 112 0.00000000000000000e+00
 113 1.27598231000000000e-03
 114 0.00000000000000000e+00
 115 1.04560706999999996e-04
 116 -1.29743051999999990e-03
 117 2.47492948999999984e-04
 118 5.73497752999999988e-04
 119 2.83084059999999993e-04
 120 0.00000000000000000e+00
 121 -1.04560706999999996e-04
 122 1.29743051999999990e-03
 123 -2.47492948999999984e-04
 124 -5.73497752999999988e-04
 125 2.83084059999999993e-04
 126 0.00000000000000000e+00
 127 -2.08918893000000004e-04
 128 2.59318316000000000e-03
 129 -4.95970827000000039e-04
 130 0.00000000000000000e+00
 131 1.27598231000000000e-03
 132 0.00000000000000000e+00
 133 -1.04560706999999996e-04
 134 1.29743051999999990e-03
 135 -2.47492948999999984e-04
 136 5.73497752999999988e-04
 137 2.83084059999999993e-04
 138 0.00000000000000000e+00
 139 1.04560706999999996e-04
 140 -1.29743051999999990e-03
 141 2.47492948999999984e-04
 142 -5.73497752999999988e-04
 143 2.83084059999999993e-04
 144 0.00000000000000000e+00
 Ene= -1.02253036000000002e+01
 Sym= 1a
 Spin= Alpha
 Occup= 2.00000000000000000e+00
   1 0.00000000000000000e+00
   2 0.00000000000000000e+00
   3 5.25545430000000000e-04
   4 0.00000000000000000e+00
   5 0.00000000000000000e+00
   6 0.00000000000000000e+00
   7 -1.79048892000000003e-03
   8 0.00000000000000000e+00
   9 0.00000000000000000e+00
  10 0.00000000000000000e+00
  11 4.75839226000000001e-04
  12 0.00000000000000000e+00
  13 0.00000000000000000e+00
  14 0.00000000000000000e+00
  15 0.00000000000000000e+00
  16 0.00000000000000000e+00
  17 0.00000000000000000e+00
  18 9.23304460000000013e-04
  19 2.81661504000000007e-01
  20 2.31583611999999994e-01
  21 9.38308119999999956e-05
  22 3.57592173000000014e-04
  23 0.00000000000000000e+00
  24 8.80054771000000034e-03
  25 -4.08499650999999994e-04
  26 -1.26957961000000001e-03
  27 0.00000000000000000e+00
  28 -5.13436754000000037e-03
  29 2.93687329000000014e-03
  30 1.97032625999999994e-03
  31 0.00000000000000000e+00
  32 -1.18244007999999999e-03
  33 0.00000000000000000e+00
  34 0.00000000000000000e+00
  35 -6.00314487000000018e-04
  36 -1.16474409999999998e-04
  37 -2.81661504000000007e-01
  38 -2.31583611999999994e-01
  39 -9.38308119999999956e-05
  40 3.57592173000000014e-04
  41 0.00000000000000000e+00
  42 -8.80054771000000034e-03
  43 4.08499650999999994e-04
  44 -1.26957961000000001e-03
  45 0.00000000000000000e+00
  46 5.13436754000000037e-03
  47 -2.93687329000000014e-03
  48 1.97032625999999994e-03
  49 0.00000000000000000e+00
  50 1.18244007999999999e-03
  51 0.00000000000000000e+00
  52 0.00000000000000000e+00
  53 6.00314487000000018e-04
  54 -1.16474409999999998e-04
  55 0.00000000000000000e+00
  56 0.00000000000000000e+00
  57 -5.25545430000000000e-04
  58 0.00000000000000000e+00
  59 0.00000000000000000e+00
  60 0.00000000000000000e+00
  61 1.79048892000000003e-03
  62 0.00000000000000000e+00
  63 0.00000000000000000e+00
  64 0.00000000000000000e+00
  65 -4.75839226000000001e-04
  66 0.00000000000000000e+00
  67 0.00000000000000000e+00
  68 0.00000000000000000e+00
  69 0.00000000000000000e+00
  70 0.00000000000000000e+00
  71 0.00000000000000000e+00
  72 9.23304460000000013e-04
  73 2.81661504000000007e-01
  74 2.31583611999999994e-01
  75 -9.38308119999999956e-05
  76 -3.57592173000000014e-04
  77 0.00000000000000000e+00
  78 8.80054771000000034e-03
  79 4.08499650999999994e-04
  80 1.26957961000000001e-03
  81 0.00000000000000000e+00
  82 -5.13436754000000037e-03
  83 -2.93687329000000014e-03
  84 -1.97032625999999994e-03
  85 0.00000000000000000e+00
  86 -1.18244007999999999e-03
  87 0.00000000000000000e+00
  88 0.00000000000000000e+00
  89 -6.00314487000000018e-04
  90 -1.16474409999999998e-04
  91 -2.81661504000000007e-01
  92 -2.31583611999999994e-01
  93 9.38308119999999956e-05
  94 -3.57592173000000014e-04
  95 0.00000000000000000e+00
  96 -8.80054771000000034e-03
  97 -4.08499650999999994e-04
  98 1.26957961000000001e-03
  99 0.00000000000000000e+00
 100 5.13436754000000037e-03
 101 2.93687329000000014e-03
 102 -1.97032625999999994e-03
 103 0.00000000000000000e+00
 104 1.18244007999999999e-03
 105 0.00000000000000000e+00
 106 0.00000000000000000e+00
 107 6.00314487000000018e-04
 108 -1.16474409999999998e-04
 109 0.00000000000000000e+00
 110 0.00000000000000000e+00
 111 0.00000000000000000e+00
 112 -4.29793623999999997e-05
 113 0.00000000000000000e+00
 114 0.00000000000000000e+00
 115 2.64617508000000007e-04
 116 -2.00052538000000018e-03
 117 -1.61510587000000003e-04
 118 7.22570153000000001e-04
 119 3.92361844000000022e-04
 120 0.00000000000000000e+00
 121 -2.64617508000000007e-04
 122 2.00052538000000018e-03
 123 1.61510587000000003e-04
 124 -7.22570153000000001e-04
 125 3.92361844000000022e-04
 126 0.00000000000000000e+00
 127 0.00000000000000000e+00
 128 0.00000000000000000e+00
 129 0.00000000000000000e+00
 130 4.29793623999999997e-05
 131 0.00000000000000000e+00
 132 0.00000000000000000e+00
 133 2.64617508000000007e-04
 134 -2.00052538000000018e-03
 135 -1.61510587000000003e-04
 136 -7.22570153000000001e-04
 137 -3.92361844000000022e-04
 138 0.00000000000000000e+00
 139 -2.64617508000000007e-04
 140 2.00052538000000018e-03
 141 1.61510587000000003e-04
 142 7.22570153000000001e-04
 143 -3.92361844000000022e-04
 144 0.00000000000000000e+00
 Ene= -1.02253033999999996e+01
 Sym= 1a
 Spin= Alpha
 Occup= 2.00000000000000000e+00
   1 3.25285517000000024e-01
   2 2.67451565000000002e-01
   3 0.00000000000000000e+00
   4 3.00222641999999982e-04
   5 0.00000000000000000e+00
   6 1.01633790000000002e-02
   7 0.00000000000000000e+00
   8 -1.14114661999999991e-03
   9 0.00000000000000000e+00
  10 -5.92903263999999992e-03
  11 0.00000000000000000e+00
  12 4.07440305999999964e-03
  13 0.00000000000000000e+00
  14 -1.36542945999999993e-03
  15 0.00000000000000000e+00
  16 0.00000000000000000e+00
  17 4.62891926999999979e-04
  18 0.00000000000000000e+00
  19 -1.62566512999999996e-01
  20 -1.33662999000000005e-01
  21 -3.57649676999999982e-04
  22 3.19058825000000004e-04
  23 0.00000000000000000e+00
  24 -5.07962439999999973e-03
  25 1.26987877000000007e-03
  26 -1.05732314000000008e-03
  27 0.00000000000000000e+00
  28 2.96395518000000004e-03
  29 -1.97035968999999993e-03
  30 -6.61749634999999952e-04
  31 0.00000000000000000e+00
  32 6.82617533999999981e-04
  33 0.00000000000000000e+00
  34 0.00000000000000000e+00
  35 -5.76623741000000033e-04
  36 6.00466767999999988e-04
  37 -1.62566512999999996e-01
  38 -1.33662999000000005e-01
  39 -3.57649676999999982e-04
  40 -3.19058825000000004e-04
  41 0.00000000000000000e+00
  42 -5.07962439999999973e-03
  43 1.26987877000000007e-03
  44 1.05732314000000008e-03
  45 0.00000000000000000e+00
  46 2.96395518000000004e-03
  47 -1.97035968999999993e-03
  48 6.61749634999999952e-04
  49 0.00000000000000000e+00
  50 6.82617533999999981e-04
  51 0.00000000000000000e+00
  52 0.00000000000000000e+00
  53 -5.76623741000000033e-04
  54 -6.00466767999999988e-04
  55 3.25285517000000024e-01
  56 2.67451565000000002e-01
  57 0.00000000000000000e+00
  58 -3.00222641999999982e-04
  59 0.00000000000000000e+00
  60 1.01633790000000002e-02
  61 0.00000000000000000e+00
  62 1.14114661999999991e-03
  63 0.00000000000000000e+00
  64 -5.92903263999999992e-03
  65 0.00000000000000000e+00
  66 -4.07440305999999964e-03
  67 0.00000000000000000e+00
  68 -1.36542945999999993e-03
  69 0.00000000000000000e+00
  70 0.00000000000000000e+00
  71 4.62891926999999979e-04
  72 0.00000000000000000e+00
  73 -1.62566512999999996e-01
  74 -1.33662999000000005e-01
  75 3.57649676999999982e-04
  76 -3.19058825000000004e-04
  77 0.00000000000000000e+00
  78 -5.07962439999999973e-03
  79 -1.26987877000000007e-03
  80 1.05732314000000008e-03
  81 0.00000000000000000e+00
  82 2.96395518000000004e-03
  83 1.97035968999999993e-03
  84 6.61749634999999952e-04
  85 0.00000000000000000e+00
  86 6.82617533999999981e-04
  87 0.00000000000000000e+00
  88 0.00000000000000000e+00
  89 -5.76623741000000033e-04
  90 6.00466767999999988e-04
  91 -1.62566512999999996e-01
  92 -1.33662999000000005e-01
  93 3.57649676999999982e-04
  94 3.19058825000000004e-04
  95 0.00000000000000000e+00
  96 -5.07962439999999973e-03
  97 -1.26987877000000007e-03
  98 -1.05732314000000008e-03
  99 0.00000000000000000e+00
 100 2.96395518000000004e-03
 101 1.97035968999999993e-03
 102 -6.61749634999999952e-04
 103 0.00000000000000000e+00
 104 6.82617533999999981e-04
 105 0.00000000000000000e+00
 106 0.00000000000000000e+00
 107 -5.76623741000000033e-04
 108 -6.00466767999999988e-04
 109 3.05532642999999994e-04
 110 -2.31043959999999984e-03
 111 -1.86250840000000005e-04
 112 0.00000000000000000e+00
 113 9.49389328000000018e-04
 114 0.00000000000000000e+00
 115 -1.52797937000000004e-04
 116 1.15457476999999997e-03
 117 9.34915543000000001e-05
 118 -3.92113823999999992e-04
 119 -2.69366294000000013e-04
 120 0.00000000000000000e+00
 121 -1.52797937000000004e-04
 122 1.15457476999999997e-03
 123 9.34915543000000001e-05
 124 -3.92113823999999992e-04
 125 2.69366294000000013e-04
 126 0.00000000000000000e+00
 127 3.05532642999999994e-04
 128 -2.31043959999999984e-03
 129 -1.86250840000000005e-04
 130 0.00000000000000000e+00
 131 -9.49389328000000018e-04
 132 0.00000000000000000e+00
 133 -1.52797937000000004e-04
 134 1.15457476999999997e-03
 135 9.34915543000000001e-05
 136 3.92113823999999992e-04
 137 2.69366294000000013e-04
 138 0.00000000000000000e+00
 139 -1.52797937000000004e-04
 140 1.15457476999999997e-03
 141 9.34915543000000001e-05
 142 3.92113823999999992e-04
 143 -2.69366294000000013e-04
 144 0.00000000000000000e+00
 Ene= -1.02250078999999996e+01
 Sym= 1a
 Spin= Alpha
 Occup= 2.00000000000000000e+00
   1 2.30068619000000002e-01
   2 1.89100103999999991e-01
   3 -0.00000000000000000e+00
   4 2.63879989000000018e-04
   5 -0.00000000000000000e+00
   6 7.70037124999999999e-03
   7 -0.00000000000000000e+00
   8 -7.42960360000000054e-04
   9 -0.00000000000000000e+00
  10 -1.91219907000000008e-02
  11 -0.00000000000000000e+00
  12 1.11825637999999998e-02
  13 -0.00000000000000000e+00
  14 -1.10228298999999995e-03