[Molden Format]
[Title]
 water-def2
[Atoms] AU
O    1   8       0.000000000000000014      0.000000000000000014      0.223730591000000006
H    2   1       0.000000000000000208      1.430166880000000029     -0.894922363000000054
H    3   1      -0.000000000000000493     -1.430166880000000029     -0.894922363000000054

[5D]
[GTO]
  1 0
 s    6 1.00
    27032.3826000000         0.0005722734
     4052.3871400000         0.0044353234
      922.3272270000         0.0230201077
      261.2407100000         0.0928224907
       85.3546414000         0.2937850000
       31.0350352000         0.6740160450
 s    2 1.00
       12.2608607000         0.6383993700
        4.9987076000         0.3953458710
 s    1 1.00
        1.1703108200         1.0000000000
 s    1 1.00
        0.4647474100         1.0000000000
 s    1 1.00
        0.1850453640         1.0000000000
 p    4 1.00
       63.2749548000         0.0120183322
       14.6270494000         0.0830054218
        4.4501223500         0.3199174390
        1.5275799600         0.7071554290
 p    1 1.00
        0.5293511790         1.0000000000
 p    1 1.00
        0.1747842130         1.0000000000
 d    1 1.00
        2.3140000000         1.0000000000
 d    1 1.00
        0.6450000000         1.0000000000
 f    1 1.00
        1.4280000000         1.0000000000

  2 0
 s    3 1.00
       34.0613410000         0.0254393072
        5.1235746000         0.1900859490
        1.1646626000         0.8524411300
 s    1 1.00
        0.3272304100         1.0000000000
 s    1 1.00
        0.1030724100         1.0000000000
 p    1 1.00
        0.8000000000         1.0000000000

  3 0
 s    3 1.00
       34.0613410000         0.0254393072
        5.1235746000         0.1900859490
        1.1646626000         0.8524411300
 s    1 1.00
        0.3272304100         1.0000000000
 s    1 1.00
        0.1030724100         1.0000000000
 p    1 1.00
        0.8000000000         1.0000000000

[MO]
 Ene= -1.92023371999999988e+01
 Sym= 1a
 Spin= Alpha
 Occup= 2.00000000000000000e+00
   1 4.35361088000000007e-01
   2 6.39856493000000026e-01
   3 3.27061672999999983e-02
   4 -2.04622931000000008e-02
   5 8.33478948999999934e-03
   6 0.00000000000000000e+00
   7 0.00000000000000000e+00
   8 -1.79189194000000003e-03
   9 0.00000000000000000e+00
  10 0.00000000000000000e+00
  11 2.80544556000000009e-03
  12 0.00000000000000000e+00
  13 0.00000000000000000e+00
  14 -1.04534153000000003e-03
  15 3.94286893000000022e-05
  16 0.00000000000000000e+00
  17 0.00000000000000000e+00
  18 -1.87606741000000013e-04
  19 0.00000000000000000e+00
  20 -1.63305318000000013e-04
  21 0.00000000000000000e+00
  22 0.00000000000000000e+00
  23 8.53582069000000023e-04
  24 0.00000000000000000e+00
  25 -1.32127435999999997e-04
  26 0.00000000000000000e+00
  27 0.00000000000000000e+00
  28 -3.11865003000000025e-04
  29 0.00000000000000000e+00
  30 0.00000000000000000e+00
  31 0.00000000000000000e+00
  32 7.91177777000000044e-04
  33 1.45669463000000000e-03
  34 -1.72811038999999989e-03
  35 0.00000000000000000e+00
  36 -8.11646236999999989e-04
  37 5.66124239000000010e-04
  38 7.91177777000000044e-04
  39 1.45669463000000000e-03
  40 -1.72811038999999989e-03
  41 0.00000000000000000e+00
  42 8.11646236999999989e-04
  43 5.66124239000000010e-04
 Ene= -1.03915927000000008e+00
 Sym= 1a
 Spin= Alpha
 Occup= 2.00000000000000000e+00
   1 -9.71703740000000038e-02
   2 -2.29286014000000010e-01
   3 3.29453349000000006e-01
   4 4.47236748000000017e-01
   5 1.52758724000000012e-01
   6 0.00000000000000000e+00
   7 0.00000000000000000e+00
   8 -8.34931505000000018e-02
   9 0.00000000000000000e+00
  10 0.00000000000000000e+00
  11 -7.34697235000000004e-02
  12 0.00000000000000000e+00
  13 0.00000000000000000e+00
  14 -1.09420414999999993e-02
  15 1.36025653000000006e-03
  16 0.00000000000000000e+00
  17 0.00000000000000000e+00
  18 -4.33778119999999982e-03
  19 0.00000000000000000e+00
  20 5.01732913000000041e-03
  21 0.00000000000000000e+00
  22 0.00000000000000000e+00
  23 -1.06330603999999999e-02
  24 0.00000000000000000e+00
  25 1.42446428999999999e-03
  26 0.00000000000000000e+00
  27 0.00000000000000000e+00
  28 4.54722447999999970e-03
  29 0.00000000000000000e+00
  30 0.00000000000000000e+00
  31 0.00000000000000000e+00
  32 9.28991237999999969e-02
  33 7.00692651999999944e-02
  34 6.36261755999999960e-03
  35 0.00000000000000000e+00
  36 -1.48194380000000007e-02
  37 8.37723211999999960e-03
  38 9.28991237999999969e-02
  39 7.00692651999999944e-02
  40 6.36261755999999960e-03
  41 0.00000000000000000e+00
  42 1.48194380000000007e-02
  43 8.37723211999999960e-03
 Ene= -5.44332978000000023e-01
 Sym= 1a
 Spin= Alpha
 Occup= 2.00000000000000000e+00
   1 0.00000000000000000e+00
   2 0.00000000000000000e+00
   3 0.00000000000000000e+00
   4 0.00000000000000000e+00
   5 0.00000000000000000e+00
   6 0.00000000000000000e+00
   7 3.81141394999999994e-01
   8 0.00000000000000000e+00
   9 0.00000000000000000e+00
  10 3.05577892999999989e-01
  11 0.00000000000000000e+00
  12 0.00000000000000000e+00
  13 1.21246656999999994e-01
  14 0.00000000000000000e+00
  15 0.00000000000000000e+00
  16 0.00000000000000000e+00
  17 -1.19211583999999995e-02
  18 0.00000000000000000e+00
  19 0.00000000000000000e+00
  20 0.00000000000000000e+00
  21 0.00000000000000000e+00
  22 -2.70601661000000014e-02
  23 0.00000000000000000e+00
  24 0.00000000000000000e+00
  25 0.00000000000000000e+00
  26 0.00000000000000000e+00
  27 1.20295097999999993e-03
  28 0.00000000000000000e+00
  29 0.00000000000000000e+00
  30 0.00000000000000000e+00
  31 -5.06086566000000029e-03
  32 1.46250141000000000e-01
  33 1.85521425999999989e-01
  34 6.24506354999999971e-02
  35 0.00000000000000000e+00
  36 -7.99271938000000078e-03
  37 1.74293511000000005e-02
  38 -1.46250141000000000e-01
  39 -1.85521425999999989e-01
  40 -6.24506354999999971e-02
  41 0.00000000000000000e+00
  42 -7.99271938000000078e-03
  43 -1.74293511000000005e-02
 Ene= -4.04355817999999978e-01
 Sym= 1a
 Spin= Alpha
 Occup= 2.00000000000000000e+00
   1 -3.67234692999999987e-02
   2 -8.82427330000000038e-02
   3 1.37181576000000000e-01
   4 2.00451285000000007e-01
   5 2.20536962000000003e-01
   6 0.00000000000000000e+00
   7 0.00000000000000000e+00
   8 4.11727390000000026e-01
   9 0.00000000000000000e+00
  10 0.00000000000000000e+00
  11 3.28973895999999988e-01
  12 0.00000000000000000e+00
  13 0.00000000000000000e+00
  14 2.30717718999999988e-01
  15 -4.65674029000000007e-03
  16 0.00000000000000000e+00
  17 0.00000000000000000e+00
  18 2.43114124999999981e-03
  19 0.00000000000000000e+00
  20 -2.68504998000000002e-02
  21 0.00000000000000000e+00
  22 0.00000000000000000e+00
  23 -3.93679005999999999e-04
  24 0.00000000000000000e+00
  25 1.03761465000000008e-03
  26 0.00000000000000000e+00
  27 0.00000000000000000e+00
  28 -3.72038806999999997e-03
  29 0.00000000000000000e+00
  30 0.00000000000000000e+00
  31 0.00000000000000000e+00
  32 -8.66815202000000007e-02
  33 -1.24623690999999995e-01
  34 -4.13479073000000003e-02
  35 0.00000000000000000e+00
  36 1.72595671000000013e-02
  37 9.99484403000000000e-03
  38 -8.66815202000000007e-02
  39 -1.24623690999999995e-01
  40 -4.13479073000000003e-02
  41 0.00000000000000000e+00
  42 -1.72595671000000013e-02
  43 9.99484403000000000e-03
 Ene= -3.26981909999999987e-01
 Sym= 1a
 Spin= Alpha
 Occup= 2.00000000000000000e+00
   1 0.00000000000000000e+00
   2 0.00000000000000000e+00
   3 0.00000000000000000e+00
   4 0.00000000000000000e+00
   5 0.00000000000000000e+00
   6 4.71337885999999984e-01
   7 0.00000000000000000e+00
   8 0.00000000000000000e+00
   9 3.93145825999999976e-01
  10 0.00000000000000000e+00
  11 0.00000000000000000e+00
  12 3.31572937999999984e-01
  13 0.00000000000000000e+00
  14 0.00000000000000000e+00
  15 0.00000000000000000e+00
  16 -4.30607639999999996e-03
  17 0.00000000000000000e+00
  18 0.00000000000000000e+00
  19 0.00000000000000000e+00
  20 0.00000000000000000e+00
  21 -2.73394463999999983e-02
  22 0.00000000000000000e+00
  23 0.00000000000000000e+00
  24 0.00000000000000000e+00
  25 0.00000000000000000e+00
  26 2.15980023999999982e-03
  27 0.00000000000000000e+00
  28 0.00000000000000000e+00
  29 0.00000000000000000e+00
  30 -5.04436284000000026e-03
  31 0.00000000000000000e+00
  32 0.00000000000000000e+00
  33 0.00000000000000000e+00
  34 0.00000000000000000e+00
  35 2.59947134999999989e-02
  36 0.00000000000000000e+00
  37 0.00000000000000000e+00
  38 0.00000000000000000e+00
  39 0.00000000000000000e+00
  40 0.00000000000000000e+00
  41 2.59947134999999989e-02
  42 0.00000000000000000e+00
  43 0.00000000000000000e+00
 Ene= 3.10588060999999992e-02
 Sym= 1a
 Spin= Alpha
 Occup= 0.00000000000000000e+00
   1 -3.27212110000000000e-02
   2 -8.31091828999999949e-02
   3 1.90251472000000005e-01
   4 -4.74057330999999998e-02
   5 1.18141319000000000e+00
   6 0.00000000000000000e+00
   7 0.00000000000000000e+00
   8 -1.57121456999999992e-01
   9 0.00000000000000000e+00
  10 0.00000000000000000e+00
  11 -1.12856655000000000e-01
  12 0.00000000000000000e+00
  13 0.00000000000000000e+00
  14 -3.34969079999999975e-01
  15 1.51719398999999996e-03
  16 0.00000000000000000e+00
  17 0.00000000000000000e+00
  18 1.70595466999999990e-03
  19 0.00000000000000000e+00
  20 8.58014131000000083e-03
  21 0.00000000000000000e+00
  22 0.00000000000000000e+00
  23 6.91141158000000040e-03
  24 0.00000000000000000e+00
  25 -3.92677460000000027e-04
  26 0.00000000000000000e+00
  27 0.00000000000000000e+00
  28 1.02531128000000007e-03
  29 0.00000000000000000e+00
  30 0.00000000000000000e+00
  31 0.00000000000000000e+00
  32 -3.70389474000000010e-02
  33 -8.52488520999999944e-02
  34 -9.44450596000000031e-01
  35 0.00000000000000000e+00
  36 -2.80816639000000014e-02
  37 1.91754220999999989e-02
  38 -3.70389474000000010e-02
  39 -8.52488520999999944e-02
  40 -9.44450596000000031e-01
  41 0.00000000000000000e+00
  42 2.80816639000000014e-02
  43 1.91754220999999989e-02
 Ene= 1.06332946999999997e-01
 Sym= 1a
 Spin= Alpha
 Occup= 0.00000000000000000e+00
   1 0.00000000000000000e+00
   2 0.00000000000000000e+00
   3 0.00000000000000000e+00
   4 0.00000000000000000e+00
   5 0.00000000000000000e+00
   6 0.00000000000000000e+00
   7 -2.47153972999999999e-01
   8 0.00000000000000000e+00
   9 0.00000000000000000e+00
  10 -1.13084545999999994e-01
  11 0.00000000000000000e+00
  12 0.00000000000000000e+00
  13 -6.90365825999999960e-01
  14 0.00000000000000000e+00
  15 0.00000000000000000e+00
  16 0.00000000000000000e+00
  17 -1.48000644000000005e-03
  18 0.00000000000000000e+00
  19 0.00000000000000000e+00
  20 0.00000000000000000e+00
  21 0.00000000000000000e+00
  22 -2.36710670999999984e-02
  23 0.00000000000000000e+00
  24 0.00000000000000000e+00
  25 0.00000000000000000e+00
  26 0.00000000000000000e+00
  27 2.93316320999999994e-03
  28 0.00000000000000000e+00
  29 0.00000000000000000e+00
  30 0.00000000000000000e+00
  31 8.15570404999999953e-04
  32 3.39973309999999987e-02
  33 1.34235897999999999e-02
  34 1.66067889999999996e+00
  35 0.00000000000000000e+00
  36 3.52054357000000026e-02
  37 -3.34446574000000010e-02
  38 -3.39973309999999987e-02
  39 -1.34235897999999999e-02
  40 -1.66067889999999996e+00
  41 0.00000000000000000e+00
  42 3.52054357000000026e-02
  43 3.34446574000000010e-02
 Ene= 3.72049483000000014e-01
 Sym= 1a
 Spin= Alpha
 Occup= 0.00000000000000000e+00
   1 0.00000000000000000e+00
   2 0.00000000000000000e+00
   3 0.00000000000000000e+00
   4 0.00000000000000000e+00
   5 0.00000000000000000e+00
   6 0.00000000000000000e+00
   7 -1.16917461000000000e-01
   8 0.00000000000000000e+00
   9 0.00000000000000000e+00
  10 -3.65257343000000012e-01
  11 0.00000000000000000e+00
  12 0.00000000000000000e+00
  13 -1.18169294999999996e+00
  14 0.00000000000000000e+00
  15 0.00000000000000000e+00
  16 0.00000000000000000e+00
  17 -3.24702824000000015e-02
  18 0.00000000000000000e+00
  19 0.00000000000000000e+00
  20 0.00000000000000000e+00
  21 0.00000000000000000e+00
  22 1.27057086000000014e-01
  23 0.00000000000000000e+00
  24 0.00000000000000000e+00
  25 0.00000000000000000e+00
  26 0.00000000000000000e+00
  27 -7.08373087999999984e-03
  28 0.00000000000000000e+00
  29 0.00000000000000000e+00
  30 0.00000000000000000e+00
  31 1.11888335000000002e-02
  32 1.22972823999999994e-01
  33 1.46205965000000004e+00
  34 -5.51252300000000028e-01
  35 0.00000000000000000e+00
  36 -9.16287496999999979e-02
  37 4.67867962000000012e-02
  38 -1.22972823999999994e-01
  39 -1.46205965000000004e+00
  40 5.51252300000000028e-01
  41 0.00000000000000000e+00
  42 -9.16287496999999979e-02
  43 -4.67867962000000012e-02
 Ene= 4.24802161999999983e-01
 Sym= 1a
 Spin= Alpha
 Occup= 0.00000000000000000e+00
   1 3.59352507999999987e-02
   2 7.89064319000000042e-02
   3 2.81957406999999993e-02
   4 -8.89592403999999948e-01
   5 -5.58669845000000054e-01
   6 0.00000000000000000e+00
   7 0.00000000000000000e+00
   8 -6.74124078999999987e-02
   9 0.00000000000000000e+00
  10 0.00000000000000000e+00
  11 -4.60796469000000000e-02
  12 0.00000000000000000e+00
  13 0.00000000000000000e+00
  14 1.46082145000000008e+00
  15 6.28838599999999998e-03
  16 0.00000000000000000e+00
  17 0.00000000000000000e+00
  18 -1.81035311999999983e-02
  19 0.00000000000000000e+00
  20 -3.83160284000000004e-02
  21 0.00000000000000000e+00
  22 0.00000000000000000e+00
  23 5.76966161000000005e-02
  24 0.00000000000000000e+00
  25 -6.89707415999999979e-03
  26 0.00000000000000000e+00
  27 0.00000000000000000e+00
  28 -1.44746729000000008e-02
  29 0.00000000000000000e+00
  30 0.00000000000000000e+00
  31 0.00000000000000000e+00
  32 8.11338986000000040e-02
  33 1.46743672999999997e+00
  34 -3.76430486000000009e-01
  35 0.00000000000000000e+00
  36 -6.94973019000000025e-02
  37 6.62539466999999965e-02
  38 8.11338986000000040e-02
  39 1.46743672999999997e+00
  40 -3.76430486000000009e-01
  41 0.00000000000000000e+00
  42 6.94973019000000025e-02
  43 6.62539466999999965e-02
 Ene= 4.44944816000000021e-01
 Sym= 1a
 Spin= Alpha
 Occup= 0.00000000000000000e+00
   1 0.00000000000000000e+00
   2 0.00000000000000000e+00
   3 0.00000000000000000e+00
   4 0.00000000000000000e+00
   5 0.00000000000000000e+00
   6 -3.12389505999999983e-01
   7 0.00000000000000000e+00
   8 0.00000000000000000e+00
   9 -7.05490864000000051e-01
  10 0.00000000000000000e+00
  11 0.00000000000000000e+00
  12 1.23686395000000005e+00
  13 0.00000000000000000e+00
  14 0.00000000000000000e+00
  15 0.00000000000000000e+00
  16 6.70932477000000041e-03
  17 0.00000000000000000e+00
  18 0.00000000000000000e+00
  19 0.00000000000000000e+00
  20 0.00000000000000000e+00
  21 -7.48328807999999995e-03
  22 0.00000000000000000e+00
  23 0.00000000000000000e+00
  24 0.00000000000000000e+00
  25 0.00000000000000000e+00
  26 -6.43310678000000020e-04
  27 0.00000000000000000e+00
  28 0.00000000000000000e+00
  29 0.00000000000000000e+00
  30 1.93000100999999994e-03
  31 0.00000000000000000e+00
  32 0.00000000000000000e+00
  33 0.00000000000000000e+00
  34 0.00000000000000000e+00
  35 -3.58194319999999983e-03
  36 0.00000000000000000e+00
  37 0.00000000000000000e+00
  38 0.00000000000000000e+00
  39 0.00000000000000000e+00
  40 0.00000000000000000e+00
  41 -3.58194319999999983e-03
  42 0.00000000000000000e+00
  43 0.00000000000000000e+00
 Ene= 4.55709411000000009e-01
 Sym= 1a
 Spin= Alpha
 Occup= 0.00000000000000000e+00
   1 7.63419198999999975e-03
   2 1.77855053000000006e-02
   3 1.27824131000000007e-02
   4 -2.41315405000000011e-01
   5 -2.17380957000000014e-01
   6 0.00000000000000000e+00
   7 0.00000000000000000e+00
   8 3.28849431999999997e-01
   9 0.00000000000000000e+00
  10 0.00000000000000000e+00
  11 7.75747879999999945e-01
  12 0.00000000000000000e+00
  13 0.00000000000000000e+00
  14 -6.58266007000000042e-01
  15 -6.04687895999999996e-03
  16 0.00000000000000000e+00
  17 0.00000000000000000e+00
  18 -9.74229247000000034e-03
  19 0.00000000000000000e+00
  20 -7.51639687999999979e-03
  21 0.00000000000000000e+00
  22 0.00000000000000000e+00
  23 8.92504409999999963e-03
  24 0.00000000000000000e+00
  25 -3.90707289000000006e-03
  26 0.00000000000000000e+00
  27 0.00000000000000000e+00
  28 -9.14251714999999958e-03
  29 0.00000000000000000e+00
  30 0.00000000000000000e+00
  31 0.00000000000000000e+00
  32 8.32162085999999940e-02
  33 8.80764876999999946e-01
  34 -5.75116646000000009e-01
  35 0.00000000000000000e+00
  36 -1.39850697000000000e-02
  37 3.47111639000000013e-02
  38 8.32162085999999940e-02
  39 8.80764876999999946e-01
  40 -5.75116646000000009e-01
  41 0.00000000000000000e+00
  42 1.39850697000000000e-02
  43 3.47111639000000013e-02
 Ene= 5.89479882999999982e-01
 Sym= 1a
 Spin= Alpha
 Occup= 0.00000000000000000e+00
   1 0.00000000000000000e+00
   2 0.00000000000000000e+00
   3 0.00000000000000000e+00
   4 0.00000000000000000e+00
   5 0.00000000000000000e+00
   6 0.00000000000000000e+00
   7 -3.48113329000000027e-01
   8 0.00000000000000000e+00
   9 0.00000000000000000e+00
  10 -7.69802961999999980e-01
  11 0.00000000000000000e+00
  12 0.00000000000000000e+00
  13 2.03454908000000012e+00
  14 0.00000000000000000e+00
  15 0.00000000000000000e+00
  16 0.00000000000000000e+00
  17 1.02364380000000005e-02
  18 0.00000000000000000e+00
  19 0.00000000000000000e+00
  20 0.00000000000000000e+00
  21 0.00000000000000000e+00
  22 -5.41137062000000002e-02
  23 0.00000000000000000e+00
  24 0.00000000000000000e+00
  25 0.00000000000000000e+00
  26 0.00000000000000000e+00
  27 2.01030186999999992e-03
  28 0.00000000000000000e+00
  29 0.00000000000000000e+00
  30 0.00000000000000000e+00
  31 -1.13323329999999995e-04
  32 5.95980352000000033e-02
  33 1.08400549999999998e-01
  34 -1.62723682000000003e+00
  35 0.00000000000000000e+00
  36 2.67228753000000006e-02
  37 -2.82698806999999996e-02
  38 -5.95980352000000033e-02
  39 -1.08400549999999998e-01
  40 1.62723682000000003e+00
  41 0.00000000000000000e+00
  42 2.67228753000000006e-02
  43 2.82698806999999996e-02
 Ene= 6.13035584999999994e-01
 Sym= 1a
 Spin= Alpha
 Occup= 0.00000000000000000e+00
   1 5.10137677999999983e-02
   2 1.05998278000000001e-01
   3 1.02252897999999995e-01
   4 -2.25268266000000006e+00
   5 4.86871966999999994e+00
   6 0.00000000000000000e+00
   7 0.00000000000000000e+00
   8 7.10536893000000003e-02
   9 0.00000000000000000e+00
  10 0.00000000000000000e+00
  11 -8.90751904000000073e-03
  12 0.00000000000000000e+00
  13 0.00000000000000000e+00
  14 -1.28419642999999994e+00
  15 -3.97054446000000023e-03
  16 0.00000000000000000e+00
  17 0.00000000000000000e+00
  18 1.69875199999999990e-02
  19 0.00000000000000000e+00
  20 2.77672240000000001e-02
  21 0.00000000000000000e+00
  22 0.00000000000000000e+00
  23 -4.53748669999999993e-02
  24 0.00000000000000000e+00
  25 5.67874643000000016e-03
  26 0.00000000000000000e+00
  27 0.00000000000000000e+00
  28 1.10142182999999998e-02
  29 0.00000000000000000e+00
  30 0.00000000000000000e+00
  31 0.00000000000000000e+00
  32 1.95582358000000005e-02
  33 -9.43067037000000052e-01
  34 -9.63958167000000032e-01
  35 0.00000000000000000e+00
  36 5.79501539999999968e-02
  37 -6.66441261000000063e-02
  38 1.95582358000000005e-02
  39 -9.43067037000000052e-01
  40 -9.63958167000000032e-01
  41 0.00000000000000000e+00
  42 -5.79501539999999968e-02
  43 -6.66441261000000063e-02
 Ene= 1.16637557000000003e+00
 Sym= 1a
 Spin= Alpha
 Occup= 0.00000000000000000e+00
   1 3.53392265000000011e-03
   2 9.38267846999999919e-03
   3 -4.17238000999999997e-02
   4 -5.70032552999999997e-02
   5 9.17484787999999996e-01
   6 0.00000000000000000e+00
   7 0.00000000000000000e+00
   8 -7.99169227000000038e-02
   9 0.00000000000000000e+00
  10 0.00000000000000000e+00
  11 -1.70842829000000002e-01
  12 0.00000000000000000e+00
  13 0.00000000000000000e+00
  14 -5.73714358000000035e-01
  15 -1.02190664000000007e-02
  16 0.00000000000000000e+00
  17 0.00000000000000000e+00
  18 -6.28296748000000023e-03
  19 0.00000000000000000e+00
  20 -4.94312309000000005e-01
  21 0.00000000000000000e+00
  22 0.00000000000000000e+00
  23 -1.45391880000000001e-01
  24 0.00000000000000000e+00
  25 3.70720098999999985e-03
  26 0.00000000000000000e+00
  27 0.00000000000000000e+00
  28 8.44678653000000002e-03
  29 0.00000000000000000e+00
  30 0.00000000000000000e+00
  31 0.00000000000000000e+00
  32 3.98180331999999984e-02
  33 -5.99909048000000000e-01
  34 -4.75085899000000020e-02
  35 0.00000000000000000e+00
  36 3.11434276000000010e-01
  37 3.00678310000000004e-01
  38 3.98180331999999984e-02
  39 -5.99909048000000000e-01
  40 -4.75085899000000020e-02
  41 0.00000000000000000e+00
  42 -3.11434276000000010e-01
  43 3.00678310000000004e-01
 Ene= 1.19842859999999996e+00
 Sym= 1a
 Spin= Alpha
 Occup= 0.00000000000000000e+00
   1 0.00000000000000000e+00
   2 0.00000000000000000e+00
   3 0.00000000000000000e+00
   4 0.00000000000000000e+00
   5 0.00000000000000000e+00
   6 0.00000000000000000e+00
   7 0.00000000000000000e+00
   8 0.00000000000000000e+00
   9 0.00000000000000000e+00
  10 0.00000000000000000e+00
  11 0.00000000000000000e+00
  12 0.00000000000000000e+00
  13 0.00000000000000000e+00
  14 0.00000000000000000e+00
  15 0.00000000000000000e+00
  16 0.00000000000000000e+00
  17 0.00000000000000000e+00
  18 0.00000000000000000e+00
  19 8.03719670999999969e-03
  20 0.00000000000000000e+00
  21 0.00000000000000000e+00
  22 0.00000000000000000e+00
  23 0.00000000000000000e+00
  24 5.45494596000000054e-01
  25 0.00000000000000000e+00
  26 0.00000000000000000e+00
  27 0.00000000000000000e+00
  28 0.00000000000000000e+00
  29 9.93432323000000006e-03
  30 0.00000000000000000e+00
  31 0.00000000000000000e+00
  32 0.00000000000000000e+00
  33 0.00000000000000000e+00
  34 0.00000000000000000e+00
  35 4.22498674999999990e-01
  36 0.00000000000000000e+00
  37 0.00000000000000000e+00
  38 0.00000000000000000e+00
  39 0.00000000000000000e+00
  40 0.00000000000000000e+00
  41 -4.22498674999999990e-01
  42 0.00000000000000000e+00
  43 0.00000000000000000e+00
 Ene= 1.30197622000000002e+00
 Sym= 1a
 Spin= Alpha
 Occup= 0.00000000000000000e+00
   1 0.00000000000000000e+00
   2 0.00000000000000000e+00
   3 0.00000000000000000e+00
   4 0.00000000000000000e+00
   5 0.00000000000000000e+00
   6 9.91621693000000054e-02
   7 0.00000000000000000e+00
   8 0.00000000000000000e+00
   9 5.57433056000000010e-02
  10 0.00000000000000000e+00
  11 0.00000000000000000e+00
  12 2.09809591999999989e-01
  13 0.00000000000000000e+00
  14 0.00000000000000000e+00
  15 0.00000000000000000e+00
  16 9.52370927999999996e-04
  17 0.00000000000000000e+00
  18 0.00000000000000000e+00
  19 0.00000000000000000e+00
  20 0.00000000000000000e+00
  21 6.71739921000000018e-01
  22 0.00000000000000000e+00
  23 0.00000000000000000e+00
  24 0.00000000000000000e+00
  25 0.00000000000000000e+00
  26 -7.91698794999999914e-03
  27 0.00000000000000000e+00
  28 0.00000000000000000e+00
  29 0.00000000000000000e+00
  30 -1.18171812000000005e-02
  31 0.00000000000000000e+00
  32 0.00000000000000000e+00
  33 0.00000000000000000e+00
  34 0.00000000000000000e+00
  35 -3.80790925000000002e-01
  36 0.00000000000000000e+00
  37 0.00000000000000000e+00
  38 0.00000000000000000e+00
  39 0.00000000000000000e+00
  40 0.00000000000000000e+00
  41 -3.80790925000000002e-01
  42 0.00000000000000000e+00
  43 0.00000000000000000e+00
 Ene= 1.53823262000000005e+00
 Sym= 1a
 Spin= Alpha
 Occup= 0.00000000000000000e+00
   1 0.00000000000000000e+00
   2 0.00000000000000000e+00
   3 0.00000000000000000e+00
   4 0.00000000000000000e+00
   5 0.00000000000000000e+00
   6 0.00000000000000000e+00
   7 1.15653618000000000e-01
   8 0.00000000000000000e+00
   9 0.00000000000000000e+00
  10 -9.46697891999999985e-01
  11 0.00000000000000000e+00
  12 0.00000000000000000e+00
  13 -9.44994761999999988e-01
  14 0.00000000000000000e+00
  15 0.00000000000000000e+00
  16 0.00000000000000000e+00
  17 -1.05007716999999997e-02
  18 0.00000000000000000e+00
  19 0.00000000000000000e+00
  20 0.00000000000000000e+00
  21 0.00000000000000000e+00
  22 1.23073417000000007e+00
  23 0.00000000000000000e+00
  24 0.00000000000000000e+00
  25 0.00000000000000000e+00
  26 0.00000000000000000e+00
  27 -5.37250374000000017e-02
  28 0.00000000000000000e+00
  29 0.00000000000000000e+00
  30 0.00000000000000000e+00
  31 4.29597369000000034e-02
  32 -3.67104659000000000e-01
  33 2.20885036000000001e+00
  34 -5.25890532000000022e-01
  35 0.00000000000000000e+00
  36 -1.90137883000000008e-01
  37 4.34954922000000022e-01
  38 3.67104659000000000e-01
  39 -2.20885036000000001e+00
  40 5.25890532000000022e-01
  41 0.00000000000000000e+00
  42 -1.90137883000000008e-01
  43 -4.34954922000000022e-01
 Ene= 1.65034502999999999e+00
 Sym= 1a
 Spin= Alpha
 Occup= 0.00000000000000000e+00
   1 -1.51349871000000004e-02
   2 -5.11165936000000029e-02
   3 3.95083671999999997e-01
   4 -7.19069898999999957e-01
   5 -1.89749608000000003e+00
   6 0.00000000000000000e+00
   7 0.00000000000000000e+00
   8 -9.64088337999999961e-02
   9 0.00000000000000000e+00
  10 0.00000000000000000e+00
  11 5.31566485000000033e-01
  12 0.00000000000000000e+00
  13 0.00000000000000000e+00
  14 9.70533494999999968e-01
  15 4.32628429000000026e-03
  16 0.00000000000000000e+00
  17 0.00000000000000000e+00
  18 -4.58390963999999977e-03
  19 0.00000000000000000e+00
  20 -3.31953510999999979e-01
  21 0.00000000000000000e+00
  22 0.00000000000000000e+00
  23 1.11706089000000008e+00
  24 0.00000000000000000e+00
  25 -2.02063640999999988e-02
  26 0.00000000000000000e+00
  27 0.00000000000000000e+00
  28 -6.41817776999999978e-02
  29 0.00000000000000000e+00
  30 0.00000000000000000e+00
  31 0.00000000000000000e+00
  32 -3.38605541000000010e-01
  33 2.10277212999999996e+00
  34 -1.82559963999999991e-01
  35 0.00000000000000000e+00
  36 -2.35438333000000000e-01
  37 1.52228775000000011e-01
  38 -3.38605541000000010e-01
  39 2.10277212999999996e+00
  40 -1.82559963999999991e-01
  41 0.00000000000000000e+00
  42 2.35438333000000000e-01
  43 1.52228775000000011e-01
 Ene= 1.76941404000000002e+00
 Sym= 1a
 Spin= Alpha
 Occup= 0.00000000000000000e+00
   1 0.00000000000000000e+00
   2 0.00000000000000000e+00
   3 0.00000000000000000e+00
   4 0.00000000000000000e+00
   5 0.00000000000000000e+00
   6 0.00000000000000000e+00
   7 -1.61676658000000001e-01
   8 0.00000000000000000e+00
   9 0.00000000000000000e+00
  10 2.52186758000000011e-01
  11 0.00000000000000000e+00
  12 0.00000000000000000e+00
  13 -3.66186377999999979e-01
  14 0.00000000000000000e+00
  15 0.00000000000000000e+00
  16 0.00000000000000000e+00
  17 1.14979348999999995e-02
  18 0.00000000000000000e+00
  19 0.00000000000000000e+00
  20 0.00000000000000000e+00
  21 0.00000000000000000e+00
  22 -4.45776795000000003e-01
  23 0.00000000000000000e+00
  24 0.00000000000000000e+00
  25 0.00000000000000000e+00
  26 0.00000000000000000e+00
  27 2.42762361999999988e-02
  28 0.00000000000000000e+00
  29 0.00000000000000000e+00
  30 0.00000000000000000e+00
  31 -1.12600449000000002e-02
  32 1.06897611000000003e-01
  33 -4.16192948000000007e-01
  34 3.44678847000000010e-01
  35 0.00000000000000000e+00
  36 5.65930527000000017e-01
  37 5.38349493999999984e-01
  38 -1.06897611000000003e-01
  39 4.16192948000000007e-01
  40 -3.44678847000000010e-01
  41 0.00000000000000000e+00
  42 5.65930527000000017e-01
  43 -5.38349493999999984e-01
 Ene= 1.99999920999999992e+00
 Sym= 1a
 Spin= Alpha
 Occup= 0.00000000000000000e+00
   1 1.46044872000000003e-02
   2 6.35923676999999993e-02
   3 -8.26543359999999949e-01
   4 2.64797590000000005e+00
   5 -5.41347112999999991e-02
   6 0.00000000000000000e+00
   7 0.00000000000000000e+00
   8 4.01571958000000007e-01
   9 0.00000000000000000e+00
  10 0.00000000000000000e+00
  11 -1.37429362999999993e+00
  12 0.00000000000000000e+00
  13 0.00000000000000000e+00
  14 1.15615783999999996e-02
  15 -9.12105808999999989e-04
  16 0.00000000000000000e+00
  17 0.00000000000000000e+00
  18 2.67872747999999992e-03
  19 0.00000000000000000e+00
  20 -2.14323631999999986e-01
  21 0.00000000000000000e+00
  22 0.00000000000000000e+00
  23 -6.07672780999999988e-03
  24 0.00000000000000000e+00
  25 7.29808559000000023e-02
  26 0.00000000000000000e+00
  27 0.00000000000000000e+00
  28 1.44324187999999992e-01
  29 0.00000000000000000e+00
  30 0.00000000000000000e+00
  31 0.00000000000000000e+00
  32 6.51160862000000007e-01
  33 -1.98029341000000003e+00
  34 4.95139706000000013e-01
  35 0.00000000000000000e+00
  36 6.01782636000000037e-01
  37 -6.09999235999999945e-01
  38 6.51160862000000007e-01
  39 -1.98029341000000003e+00
  40 4.95139706000000013e-01
  41 0.00000000000000000e+00
  42 -6.01782636000000037e-01
  43 -6.09999235999999945e-01
 Ene= 2.07470640000000017e+00
 Sym= 1a
 Spin= Alpha
 Occup= 0.00000000000000000e+00
   1 0.00000000000000000e+00
   2 0.00000000000000000e+00
   3 0.00000000000000000e+00
   4 0.00000000000000000e+00
   5 0.00000000000000000e+00
   6 -3.19344724999999996e-01
   7 0.00000000000000000e+00
   8 0.00000000000000000e+00
   9 1.48299794000000013e-01
  10 0.00000000000000000e+00
  11 0.00000000000000000e+00
  12 -4.79104788999999975e-01
  13 0.00000000000000000e+00
  14 0.00000000000000000e+00
  15 0.00000000000000000e+00
  16 -9.76180232999999953e-03
  17 0.00000000000000000e+00
  18 0.00000000000000000e+00
  19 0.00000000000000000e+00
  20 0.00000000000000000e+00
  21 8.89014450000000012e-01
  22 0.00000000000000000e+00
  23 0.00000000000000000e+00
  24 0.00000000000000000e+00
  25 0.00000000000000000e+00
  26 -9.15054535000000072e-03
  27 0.00000000000000000e+00
  28 0.00000000000000000e+00
  29 0.00000000000000000e+00
  30 -1.23768119999999992e-02
  31 0.00000000000000000e+00
  32 0.00000000000000000e+00
  33 0.00000000000000000e+00
  34 0.00000000000000000e+00
  35 7.60544121999999989e-01
  36 0.00000000000000000e+00
  37 0.00000000000000000e+00
  38 0.00000000000000000e+00
  39 0.00000000000000000e+00