[Molden Format]
[Title]
 water-pople
[Atoms] AU
O    1   8       0.000000000000000014      0.000000000000000014      0.223730591000000006
H    2   1       0.000000000000000208      1.430166880000000029     -0.894922363000000054
H    3   1      -0.000000000000000493     -1.430166880000000029     -0.894922363000000054

[5D10F]
[GTO]
  1 0
 s    6 1.00
     8588.5000000000         0.0018951501
     1297.2300000000         0.0143859006
      299.2960000000         0.0707320031
       87.3771000000         0.2400010110
       25.6789000000         0.5947970260
        3.7400400000         0.2808020120
 s    3 1.00
       42.1175000000         0.1138890120
        9.6283700000         0.9208111010
        2.8533200000        -0.0032744704
 p    3 1.00
       42.1175000000         0.0365113974
        9.6283700000         0.2371529830
        2.8533200000         0.8197019410
 s    1 1.00
        0.9056610000         1.0000000000
 p    1 1.00
        0.9056610000         1.0000000000
 s    1 1.00
        0.2556110000         1.0000000000
 p    1 1.00
        0.2556110000         1.0000000000
 d    1 1.00
        1.2920000000         1.0000000000

  2 0
 s    3 1.00
       33.8650000000         0.0254938145
        5.0947900000         0.1903731090
        1.1587900000         0.8521614860
 s    1 1.00
        0.3258400000         1.0000000000
 s    1 1.00
        0.1027410000         1.0000000000
 p    1 1.00
        0.7500000000         1.0000000000

  3 0
 s    3 1.00
       33.8650000000         0.0254938145
        5.0947900000         0.1903731090
        1.1587900000         0.8521614860
 s    1 1.00
        0.3258400000         1.0000000000
 s    1 1.00
        0.1027410000         1.0000000000
 p    1 1.00
        0.7500000000         1.0000000000

[MO]
 Ene= -1.91797806999999985e+01
 Sym= 1a
 Spin= Alpha
 Occup= 2.00000000000000000e+00
   1 5.51669736000000022e-01
   2 4.69740339999999978e-01
   3 0.00000000000000000e+00
   4 0.00000000000000000e+00
   5 -1.35456587000000006e-03
   6 1.15692856999999993e-02
   7 0.00000000000000000e+00
   8 0.00000000000000000e+00
   9 -5.01027303000000008e-04
  10 -2.73924204000000008e-03
  11 0.00000000000000000e+00
  12 0.00000000000000000e+00
  13 -1.29320944000000011e-04
  14 4.27466769999999989e-05
  15 0.00000000000000000e+00
  16 0.00000000000000000e+00
  17 -3.88210280000000018e-04
  18 0.00000000000000000e+00
  19 -5.09324521000000010e-05
  20 -8.07317062999999961e-04
  21 6.38869225999999990e-04
  22 0.00000000000000000e+00
  23 8.07904900000000004e-04
  24 -6.58212286999999971e-04
  25 -5.09324521000000010e-05
  26 -8.07317062999999961e-04
  27 6.38869225999999990e-04
  28 0.00000000000000000e+00
  29 -8.07904900000000004e-04
  30 -6.58212286999999971e-04
 Ene= -1.02789492999999998e+00
 Sym= 1a
 Spin= Alpha
 Occup= 2.00000000000000000e+00
   1 -1.15157188999999993e-01
   2 -1.85468863000000012e-01
   3 0.00000000000000000e+00
   4 0.00000000000000000e+00
   5 -5.24761555999999976e-02
   6 5.35454859999999977e-01
   7 0.00000000000000000e+00
   8 0.00000000000000000e+00
   9 -8.08811843000000058e-02
  10 3.59215239000000019e-01
  11 0.00000000000000000e+00
  12 0.00000000000000000e+00
  13 -2.91790362999999990e-02
  14 3.94067364999999958e-03
  15 0.00000000000000000e+00
  16 0.00000000000000000e+00
  17 -8.87185916000000040e-03
  18 0.00000000000000000e+00
  19 9.86498442999999975e-02
  20 8.50451554999999970e-02
  21 1.07771534000000008e-03
  22 0.00000000000000000e+00
  23 -2.37175022000000006e-02
  24 1.35965124999999996e-02
  25 9.86498442999999975e-02
  26 8.50451554999999970e-02
  27 1.07771534000000008e-03
  28 0.00000000000000000e+00
  29 2.37175022000000006e-02
  30 1.35965124999999996e-02
 Ene= -5.34121893000000014e-01
 Sym= 1a
 Spin= Alpha
 Occup= 2.00000000000000000e+00
   1 0.00000000000000000e+00
   2 0.00000000000000000e+00
   3 0.00000000000000000e+00
   4 2.36456327999999993e-01
   5 0.00000000000000000e+00
   6 0.00000000000000000e+00
   7 0.00000000000000000e+00
   8 3.45193383000000020e-01
   9 0.00000000000000000e+00
  10 0.00000000000000000e+00
  11 0.00000000000000000e+00
  12 2.09367748999999992e-01
  13 0.00000000000000000e+00
  14 0.00000000000000000e+00
  15 0.00000000000000000e+00
  16 -2.45710875999999995e-02
  17 0.00000000000000000e+00
  18 0.00000000000000000e+00
  19 1.53239231000000004e-01
  20 2.07034462000000002e-01
  21 7.28015097999999972e-02
  22 0.00000000000000000e+00
  23 -1.45521964000000000e-02
  24 2.40424051000000007e-02
  25 -1.53239231000000004e-01
  26 -2.07034462000000002e-01
  27 -7.28015097999999972e-02
  28 0.00000000000000000e+00
  29 -1.45521964000000000e-02
  30 -2.40424051000000007e-02
 Ene= -3.89350426000000027e-01
 Sym= 1a
 Spin= Alpha
 Occup= 2.00000000000000000e+00
   1 -4.44697270000000006e-02
   2 -7.28640730999999958e-02
   3 0.00000000000000000e+00
   4 0.00000000000000000e+00
   5 2.59339403000000024e-01
   6 2.15916079000000011e-01
   7 0.00000000000000000e+00
   8 0.00000000000000000e+00
   9 3.63684017999999998e-01
  10 3.60251113000000012e-01
  11 0.00000000000000000e+00
  12 0.00000000000000000e+00
  13 3.33989130000000023e-01
  14 -1.74375067000000009e-02
  15 0.00000000000000000e+00
  16 0.00000000000000000e+00
  17 1.44719185000000009e-03
  18 0.00000000000000000e+00
  19 -8.78608188000000040e-02
  20 -1.45747392000000003e-01
  21 -3.72924373000000017e-02
  22 0.00000000000000000e+00
  23 2.76146056000000015e-02
  24 1.32518021999999992e-02
  25 -8.78608188000000040e-02
  26 -1.45747392000000003e-01
  27 -3.72924373000000017e-02
  28 0.00000000000000000e+00
  29 -2.76146056000000015e-02
  30 1.32518021999999992e-02
 Ene= -3.11452041999999985e-01
 Sym= 1a
 Spin= Alpha
 Occup= 2.00000000000000000e+00
   1 0.00000000000000000e+00
   2 0.00000000000000000e+00
   3 2.99534365999999996e-01
   4 0.00000000000000000e+00
   5 0.00000000000000000e+00
   6 0.00000000000000000e+00
   7 4.25769137999999991e-01
   8 0.00000000000000000e+00
   9 0.00000000000000000e+00
  10 0.00000000000000000e+00
  11 4.71405028000000004e-01
  12 0.00000000000000000e+00
  13 0.00000000000000000e+00
  14 0.00000000000000000e+00
  15 -1.80338033999999994e-02
  16 0.00000000000000000e+00
  17 0.00000000000000000e+00
  18 0.00000000000000000e+00
  19 0.00000000000000000e+00
  20 0.00000000000000000e+00
  21 0.00000000000000000e+00
  22 3.32066307999999977e-02
  23 0.00000000000000000e+00
  24 0.00000000000000000e+00
  25 0.00000000000000000e+00
  26 0.00000000000000000e+00
  27 0.00000000000000000e+00
  28 3.32066307999999977e-02
  29 0.00000000000000000e+00
  30 0.00000000000000000e+00
 Ene= 4.67509052999999994e-02
 Sym= 1a
 Spin= Alpha
 Occup= 0.00000000000000000e+00
   1 -4.06279509000000011e-02
   2 -6.56756255999999955e-02
   3 0.00000000000000000e+00
   4 0.00000000000000000e+00
   5 -1.00928259000000006e-01
   6 1.69342290000000006e-01
   7 0.00000000000000000e+00
   8 0.00000000000000000e+00
   9 -1.55956937999999989e-01
  10 8.16362864999999993e-01
  11 0.00000000000000000e+00
  12 0.00000000000000000e+00
  13 -2.40076235999999998e-01
  14 6.53927415999999966e-03
  15 0.00000000000000000e+00
  16 0.00000000000000000e+00
  17 -5.21851591999999954e-04
  18 0.00000000000000000e+00
  19 -4.47407053000000027e-02
  20 -5.09122348999999988e-02
  21 -7.58395954000000039e-01
  22 0.00000000000000000e+00
  23 -1.52150076000000002e-02
  24 3.65300379999999999e-03
  25 -4.47407053000000027e-02
  26 -5.09122348999999988e-02
  27 -7.58395954000000039e-01
  28 0.00000000000000000e+00
  29 1.52150076000000002e-02
  30 3.65300379999999999e-03
 Ene= 1.21666031999999993e-01
 Sym= 1a
 Spin= Alpha
 Occup= 0.00000000000000000e+00
   1 0.00000000000000000e+00
   2 0.00000000000000000e+00
   3 0.00000000000000000e+00
   4 -1.61974805999999999e-01
   5 0.00000000000000000e+00
   6 0.00000000000000000e+00
   7 0.00000000000000000e+00
   8 -2.00315010999999987e-01
   9 0.00000000000000000e+00
  10 0.00000000000000000e+00
  11 0.00000000000000000e+00
  12 -5.30236155999999959e-01
  13 0.00000000000000000e+00
  14 0.00000000000000000e+00
  15 0.00000000000000000e+00
  16 1.14701014000000005e-03
  17 0.00000000000000000e+00
  18 0.00000000000000000e+00
  19 3.92761771999999981e-02
  20 4.11934041999999986e-02
  21 1.39184386000000004e+00
  22 0.00000000000000000e+00
  23 1.54403916000000006e-02
  24 -1.63544790000000016e-02
  25 -3.92761771999999981e-02
  26 -4.11934041999999986e-02
  27 -1.39184386000000004e+00
  28 0.00000000000000000e+00
  29 1.54403916000000006e-02
  30 1.63544790000000016e-02
 Ene= 3.95125488000000025e-01
 Sym= 1a
 Spin= Alpha
 Occup= 0.00000000000000000e+00
   1 0.00000000000000000e+00
   2 0.00000000000000000e+00
   3 0.00000000000000000e+00
   4 -1.24045469000000005e-01
   5 0.00000000000000000e+00
   6 0.00000000000000000e+00
   7 0.00000000000000000e+00
   8 -1.97350917999999986e-01
   9 0.00000000000000000e+00
  10 0.00000000000000000e+00
  11 0.00000000000000000e+00
  12 -9.14680551999999980e-01
  13 0.00000000000000000e+00
  14 0.00000000000000000e+00
  15 0.00000000000000000e+00
  16 -2.17414792000000003e-02
  17 0.00000000000000000e+00
  18 0.00000000000000000e+00
  19 1.15402058000000002e-01
  20 1.36264275000000001e+00
  21 -9.66575092999999996e-01
  22 0.00000000000000000e+00
  23 -2.47177602000000010e-02
  24 -1.01190046000000002e-02
  25 -1.15402058000000002e-01
  26 -1.36264275000000001e+00
  27 9.66575092999999996e-01
  28 0.00000000000000000e+00
  29 -2.47177602000000010e-02
  30 1.01190046000000002e-02
 Ene= 4.41170673000000013e-01
 Sym= 1a
 Spin= Alpha
 Occup= 0.00000000000000000e+00
   1 3.25257007000000001e-02
   2 5.52856768999999970e-02
   3 0.00000000000000000e+00
   4 0.00000000000000000e+00
   5 1.17578656000000004e-01
   6 -1.50395188000000013e-01
   7 0.00000000000000000e+00
   8 0.00000000000000000e+00
   9 2.17499143000000006e-01
  10 -1.10886785999999993e+00
  11 0.00000000000000000e+00
  12 0.00000000000000000e+00
  13 8.86414685999999952e-01
  14 -1.05361097000000008e-02
  15 0.00000000000000000e+00
  16 0.00000000000000000e+00
  17 -1.63585312999999996e-02
  18 0.00000000000000000e+00
  19 1.00192122999999994e-01
  20 1.66412142000000007e+00
  21 -6.92358196000000037e-01
  22 0.00000000000000000e+00
  23 -1.56983525999999998e-02
  24 3.78466505000000022e-02
  25 1.00192122999999994e-01
  26 1.66412142000000007e+00
  27 -6.92358196000000037e-01
  28 0.00000000000000000e+00
  29 1.56983525999999998e-02
  30 3.78466505000000022e-02
 Ene= 7.81757991999999957e-01
 Sym= 1a
 Spin= Alpha
 Occup= 0.00000000000000000e+00
   1 1.82619800000000006e-02
   2 3.21935024999999986e-02
   3 0.00000000000000000e+00
   4 0.00000000000000000e+00
   5 -2.49251184999999986e-01
   6 -7.10630247999999992e-02
   7 0.00000000000000000e+00
   8 0.00000000000000000e+00
   9 -7.08695281999999982e-01
  10 -9.59950239999999955e-01
  11 0.00000000000000000e+00
  12 0.00000000000000000e+00
  13 1.59096723999999989e+00
  14 2.34796056999999996e-03
  15 0.00000000000000000e+00
  16 0.00000000000000000e+00
  17 1.05775430000000000e-02
  18 0.00000000000000000e+00
  19 2.63020721000000006e-02
  20 6.62360209000000033e-01
  21 8.17612739000000005e-02
  22 0.00000000000000000e+00
  23 -1.17370875000000000e-01
  24 1.20046730000000004e-01
  25 2.63020721000000006e-02
  26 6.62360209000000033e-01
  27 8.17612739000000005e-02
  28 0.00000000000000000e+00
  29 1.17370875000000000e-01
  30 1.20046730000000004e-01
 Ene= 7.86875306999999968e-01
 Sym= 1a
 Spin= Alpha
 Occup= 0.00000000000000000e+00
   1 0.00000000000000000e+00
   2 0.00000000000000000e+00
   3 -2.64519630000000006e-01
   4 0.00000000000000000e+00
   5 0.00000000000000000e+00
   6 0.00000000000000000e+00
   7 -8.14636100999999946e-01
   8 0.00000000000000000e+00
   9 0.00000000000000000e+00
  10 0.00000000000000000e+00
  11 1.12531968999999998e+00
  12 0.00000000000000000e+00
  13 0.00000000000000000e+00
  14 0.00000000000000000e+00
  15 8.02204115999999995e-03
  16 0.00000000000000000e+00
  17 0.00000000000000000e+00
  18 0.00000000000000000e+00
  19 0.00000000000000000e+00
  20 0.00000000000000000e+00
  21 0.00000000000000000e+00
  22 -4.47305838000000013e-04
  23 0.00000000000000000e+00
  24 0.00000000000000000e+00
  25 0.00000000000000000e+00
  26 0.00000000000000000e+00
  27 0.00000000000000000e+00
  28 -4.47305838000000013e-04
  29 0.00000000000000000e+00
  30 0.00000000000000000e+00
 Ene= 8.84929273999999988e-01
 Sym= 1a
 Spin= Alpha
 Occup= 0.00000000000000000e+00
   1 0.00000000000000000e+00
   2 0.00000000000000000e+00
   3 0.00000000000000000e+00
   4 -2.52506286999999996e-01
   5 0.00000000000000000e+00
   6 0.00000000000000000e+00
   7 0.00000000000000000e+00
   8 -6.91085543000000024e-01
   9 0.00000000000000000e+00
  10 0.00000000000000000e+00
  11 0.00000000000000000e+00
  12 1.84155012999999990e+00
  13 0.00000000000000000e+00
  14 0.00000000000000000e+00
  15 0.00000000000000000e+00
  16 -2.12360491000000012e-02
  17 0.00000000000000000e+00
  18 0.00000000000000000e+00
  19 5.48797680999999968e-03
  20 -4.19617169999999984e-01
  21 -7.99070241999999986e-01
  22 0.00000000000000000e+00
  23 1.57826963999999986e-01
  24 -1.16550322999999997e-01
  25 -5.48797680999999968e-03
  26 4.19617169999999984e-01
  27 7.99070241999999986e-01
  28 0.00000000000000000e+00
  29 1.57826963999999986e-01
  30 1.16550322999999997e-01
 Ene= 1.08464377999999995e+00
 Sym= 1a
 Spin= Alpha
 Occup= 0.00000000000000000e+00
   1 1.03938034999999998e-01
   2 2.04267030999999988e-01
   3 0.00000000000000000e+00
   4 0.00000000000000000e+00
   5 2.43688952000000007e-02
   6 -1.52349811000000002e+00
   7 0.00000000000000000e+00
   8 0.00000000000000000e+00
   9 -1.48207691000000003e-01
  10 3.09433800999999997e+00
  11 0.00000000000000000e+00
  12 0.00000000000000000e+00
  13 -5.82588682000000024e-01
  14 3.38139647999999987e-02
  15 0.00000000000000000e+00
  16 0.00000000000000000e+00
  17 -6.74087796999999975e-03
  18 0.00000000000000000e+00
  19 2.24249242999999994e-02
  20 -8.52265516999999972e-01
  21 -3.54490701999999991e-01
  22 0.00000000000000000e+00
  23 1.29011893999999988e-01
  24 -3.47984522999999990e-01
  25 2.24249242999999994e-02
  26 -8.52265516999999972e-01
  27 -3.54490701999999991e-01
  28 0.00000000000000000e+00
  29 -1.29011893999999988e-01
  30 -3.47984522999999990e-01
 Ene= 1.25379792999999995e+00
 Sym= 1a
 Spin= Alpha
 Occup= 0.00000000000000000e+00
   1 3.54793581999999982e-02
   2 7.09732398000000042e-02
   3 0.00000000000000000e+00
   4 0.00000000000000000e+00
   5 -8.43718843999999996e-03
   6 -6.19563647999999967e-01
   7 0.00000000000000000e+00
   8 0.00000000000000000e+00
   9 -6.48826031999999997e-02
  10 2.03454503999999980e+00
  11 0.00000000000000000e+00
  12 0.00000000000000000e+00
  13 -1.29167988000000000e+00
  14 -1.29315456999999995e-01
  15 0.00000000000000000e+00
  16 0.00000000000000000e+00
  17 -5.65603949999999994e-02
  18 0.00000000000000000e+00
  19 7.93196802000000062e-02
  20 -1.18778440999999990e+00
  21 2.81880354999999999e-02
  22 0.00000000000000000e+00
  23 5.85665982999999946e-01
  24 4.12858100000000006e-01
  25 7.93196802000000062e-02
  26 -1.18778440999999990e+00
  27 2.81880354999999999e-02
  28 0.00000000000000000e+00
  29 -5.85665982999999946e-01
  30 4.12858100000000006e-01
 Ene= 1.27925843000000006e+00
 Sym= 1a
 Spin= Alpha
 Occup= 0.00000000000000000e+00
   1 0.00000000000000000e+00
   2 0.00000000000000000e+00
   3 0.00000000000000000e+00
   4 0.00000000000000000e+00
   5 0.00000000000000000e+00
   6 0.00000000000000000e+00
   7 0.00000000000000000e+00
   8 0.00000000000000000e+00
   9 0.00000000000000000e+00
  10 0.00000000000000000e+00
  11 0.00000000000000000e+00
  12 0.00000000000000000e+00
  13 0.00000000000000000e+00
  14 0.00000000000000000e+00
  15 0.00000000000000000e+00
  16 0.00000000000000000e+00
  17 0.00000000000000000e+00
  18 1.33083555999999992e-01
  19 0.00000000000000000e+00
  20 0.00000000000000000e+00
  21 0.00000000000000000e+00
  22 6.86585726999999979e-01
  23 0.00000000000000000e+00
  24 0.00000000000000000e+00
  25 0.00000000000000000e+00
  26 0.00000000000000000e+00
  27 0.00000000000000000e+00
  28 -6.86585726999999979e-01
  29 0.00000000000000000e+00
  30 0.00000000000000000e+00
 Ene= 1.47241464000000000e+00
 Sym= 1a
 Spin= Alpha
 Occup= 0.00000000000000000e+00
   1 0.00000000000000000e+00
   2 0.00000000000000000e+00
   3 -4.60980967000000005e-02
   4 0.00000000000000000e+00
   5 0.00000000000000000e+00
   6 0.00000000000000000e+00
   7 -2.65755093999999990e-02
   8 0.00000000000000000e+00
   9 0.00000000000000000e+00
  10 0.00000000000000000e+00
  11 -5.83144125999999985e-01
  12 0.00000000000000000e+00
  13 0.00000000000000000e+00
  14 0.00000000000000000e+00
  15 -1.56525512000000006e-01
  16 0.00000000000000000e+00
  17 0.00000000000000000e+00
  18 0.00000000000000000e+00
  19 0.00000000000000000e+00
  20 0.00000000000000000e+00
  21 0.00000000000000000e+00
  22 7.63115754999999951e-01
  23 0.00000000000000000e+00
  24 0.00000000000000000e+00
  25 0.00000000000000000e+00
  26 0.00000000000000000e+00
  27 0.00000000000000000e+00
  28 7.63115754999999951e-01
  29 0.00000000000000000e+00
  30 0.00000000000000000e+00
 Ene= 1.67431386999999998e+00
 Sym= 1a
 Spin= Alpha
 Occup= 0.00000000000000000e+00
   1 0.00000000000000000e+00
   2 0.00000000000000000e+00
   3 0.00000000000000000e+00
   4 -1.41518375000000002e-02
   5 0.00000000000000000e+00
   6 0.00000000000000000e+00
   7 0.00000000000000000e+00
   8 -3.82049407999999965e-02
   9 0.00000000000000000e+00
  10 0.00000000000000000e+00
  11 0.00000000000000000e+00
  12 9.18589428999999957e-01
  13 0.00000000000000000e+00
  14 0.00000000000000000e+00
  15 0.00000000000000000e+00
  16 -6.95393841000000040e-02
  17 0.00000000000000000e+00
  18 0.00000000000000000e+00
  19 1.77744743000000011e-01
  20 -7.43006798999999996e-01
  21 1.67239137000000010e-01
  22 0.00000000000000000e+00
  23 -4.92051328000000010e-01
  24 -6.39408149999999953e-01
  25 -1.77744743000000011e-01
  26 7.43006798999999996e-01
  27 -1.67239137000000010e-01
  28 0.00000000000000000e+00
  29 -4.92051328000000010e-01
  30 6.39408149999999953e-01
 Ene= 1.94858872000000005e+00
 Sym= 1a
 Spin= Alpha
 Occup= 0.00000000000000000e+00
   1 0.00000000000000000e+00
   2 0.00000000000000000e+00
   3 0.00000000000000000e+00
   4 1.71765474000000001e-01
   5 0.00000000000000000e+00
   6 0.00000000000000000e+00
   7 0.00000000000000000e+00
   8 4.30479265000000000e-01
   9 0.00000000000000000e+00
  10 0.00000000000000000e+00
  11 0.00000000000000000e+00
  12 5.26586823000000023e-02
  13 0.00000000000000000e+00
  14 0.00000000000000000e+00
  15 0.00000000000000000e+00
  16 2.37293887000000009e-01
  17 0.00000000000000000e+00
  18 0.00000000000000000e+00
  19 -6.58833607000000043e-01
  20 6.78606970000000032e-01
  21 -5.84458172000000054e-01
  22 0.00000000000000000e+00
  23 3.05276095000000025e-01
  24 -4.94749698000000016e-01
  25 6.58833607000000043e-01
  26 -6.78606970000000032e-01
  27 5.84458172000000054e-01
  28 0.00000000000000000e+00
  29 3.05276095000000025e-01
  30 4.94749698000000016e-01
 Ene= 2.08187178000000017e+00
 Sym= 1a
 Spin= Alpha
 Occup= 0.00000000000000000e+00
   1 -3.04365363999999985e-02
   2 -5.50529832000000025e-02
   3 0.00000000000000000e+00
   4 0.00000000000000000e+00
   5 -1.67525290999999993e-01
   6 2.39718694000000010e-01
   7 0.00000000000000000e+00
   8 0.00000000000000000e+00
   9 -2.35237245000000011e-01
  10 -1.99753320999999988e-04
  11 0.00000000000000000e+00
  12 0.00000000000000000e+00
  13 1.69744249000000014e-01
  14 -8.34353033999999938e-02
  15 0.00000000000000000e+00
  16 0.00000000000000000e+00
  17 2.73026592999999984e-01
  18 0.00000000000000000e+00
  19 -8.53903582000000050e-01
  20 1.02160215000000010e+00
  21 -4.30424852999999996e-01
  22 0.00000000000000000e+00
  23 3.42506825999999986e-01
  24 -1.70336675999999992e-01
  25 -8.53903582000000050e-01
  26 1.02160215000000010e+00
  27 -4.30424852999999996e-01
  28 0.00000000000000000e+00
  29 -3.42506825999999986e-01
  30 -1.70336675999999992e-01
 Ene= 2.31015081000000011e+00
 Sym= 1a
 Spin= Alpha
 Occup= 0.00000000000000000e+00
   1 5.38933423000000009e-02
   2 1.19418562000000006e-01
   3 0.00000000000000000e+00
   4 0.00000000000000000e+00
   5 2.35879272000000008e-02
   6 -8.40358209000000023e-01
   7 0.00000000000000000e+00
   8 0.00000000000000000e+00
   9 6.37405227000000019e-01
  10 -1.82438771000000011e+00
  11 0.00000000000000000e+00
  12 0.00000000000000000e+00
  13 7.82097213999999985e-01
  14 2.94262651000000014e-02
  15 0.00000000000000000e+00
  16 0.00000000000000000e+00
  17 -1.72724915000000007e-02
  18 0.00000000000000000e+00
  19 -6.13635342000000028e-01
  20 2.05107942000000021e+00
  21 -2.88316809000000007e-01
  22 0.00000000000000000e+00
  23 -8.70868536000000026e-01
  24 6.46933720000000045e-01
  25 -6.13635342000000028e-01
  26 2.05107942000000021e+00
  27 -2.88316809000000007e-01
  28 0.00000000000000000e+00
  29 8.70868536000000026e-01
  30 6.46933720000000045e-01
 Ene= 2.50224780000000013e+00
 Sym= 1a
 Spin= Alpha
 Occup= 0.00000000000000000e+00
   1 0.00000000000000000e+00
   2 0.00000000000000000e+00
   3 0.00000000000000000e+00
   4 -2.18117908000000013e-02
   5 0.00000000000000000e+00
   6 0.00000000000000000e+00
   7 0.00000000000000000e+00
   8 -8.40937409999999996e-01
   9 0.00000000000000000e+00
  10 0.00000000000000000e+00
  11 0.00000000000000000e+00
  12 -6.83225489000000019e-01
  13 0.00000000000000000e+00
  14 0.00000000000000000e+00
  15 0.00000000000000000e+00
  16 2.07193072000000006e-01
  17 0.00000000000000000e+00
  18 0.00000000000000000e+00
  19 -8.11277499000000013e-01
  20 2.09250764999999994e+00
  21 -5.41005002999999984e-01
  22 0.00000000000000000e+00
  23 -8.64297163000000035e-01
  24 6.22803456999999949e-01
  25 8.11277499000000013e-01
  26 -2.09250764999999994e+00
  27 5.41005002999999984e-01
  28 0.00000000000000000e+00
  29 -8.64297163000000035e-01
  30 -6.22803456999999949e-01
 Ene= 3.12986523000000005e+00
 Sym= 1a
 Spin= Alpha
 Occup= 0.00000000000000000e+00
   1 0.00000000000000000e+00
   2 0.00000000000000000e+00
   3 -1.56900776000000013e-02
   4 0.00000000000000000e+00
   5 0.00000000000000000e+00
   6 0.00000000000000000e+00
   7 1.55764921000000004e-02
   8 0.00000000000000000e+00
   9 0.00000000000000000e+00
  10 0.00000000000000000e+00
  11 -2.73910668999999996e-01
  12 0.00000000000000000e+00
  13 0.00000000000000000e+00
  14 0.00000000000000000e+00
  15 1.03243931999999994e+00
  16 0.00000000000000000e+00
  17 0.00000000000000000e+00
  18 0.00000000000000000e+00
  19 0.00000000000000000e+00
  20 0.00000000000000000e+00
  21 0.00000000000000000e+00
  22 3.63184642999999974e-01
  23 0.00000000000000000e+00
  24 0.00000000000000000e+00
  25 0.00000000000000000e+00
  26 0.00000000000000000e+00
  27 0.00000000000000000e+00
  28 3.63184642999999974e-01
  29 0.00000000000000000e+00
  30 0.00000000000000000e+00
 Ene= 3.17326385000000011e+00
 Sym= 1a
 Spin= Alpha
 Occup= 0.00000000000000000e+00
   1 0.00000000000000000e+00
   2 0.00000000000000000e+00
   3 0.00000000000000000e+00
   4 0.00000000000000000e+00
   5 0.00000000000000000e+00
   6 0.00000000000000000e+00
   7 0.00000000000000000e+00
   8 0.00000000000000000e+00
   9 0.00000000000000000e+00
  10 0.00000000000000000e+00
  11 0.00000000000000000e+00
  12 0.00000000000000000e+00
  13 0.00000000000000000e+00
  14 0.00000000000000000e+00
  15 0.00000000000000000e+00
  16 0.00000000000000000e+00
  17 0.00000000000000000e+00
  18 1.05104525999999998e+00
  19 0.00000000000000000e+00
  20 0.00000000000000000e+00
  21 0.00000000000000000e+00
  22 -3.42314394000000022e-01
  23 0.00000000000000000e+00
  24 0.00000000000000000e+00
  25 0.00000000000000000e+00
  26 0.00000000000000000e+00
  27 0.00000000000000000e+00
  28 3.42314394000000022e-01
  29 0.00000000000000000e+00
  30 0.00000000000000000e+00
 Ene= 3.33878842000000020e+00
 Sym= 1a
 Spin= Alpha
 Occup= 0.00000000000000000e+00
   1 3.51040525000000016e-05
   2 4.08767389000000002e-04
   3 0.00000000000000000e+00
   4 0.00000000000000000e+00
   5 -3.01684013000000015e-02
   6 -6.21897757999999995e-02
   7 0.00000000000000000e+00
   8 0.00000000000000000e+00
   9 -1.76644928000000007e-02
  10 6.57427243999999966e-01
  11 0.00000000000000000e+00
  12 0.00000000000000000e+00
  13 -5.91575944999999992e-01
  14 1.06432997999999990e+00
  15 0.00000000000000000e+00
  16 0.00000000000000000e+00
  17 1.85594819999999994e-01
  18 0.00000000000000000e+00
  19 -2.77849710000000003e-03
  20 -4.56002589000000014e-01
  21 3.23404925999999995e-02
  22 0.00000000000000000e+00
  23 3.67412601000000005e-01
  24 2.64843064999999989e-01
  25 -2.77849710000000003e-03
  26 -4.56002589000000014e-01
  27 3.23404925999999995e-02
  28 0.00000000000000000e+00
  29 -3.67412601000000005e-01
  30 2.64843064999999989e-01
 Ene= 3.61521449000000006e+00
 Sym= 1a
 Spin= Alpha
 Occup= 0.00000000000000000e+00
   1 -2.20140155999999990e-02
   2 -4.13862893999999981e-02
   3 0.00000000000000000e+00
   4 0.00000000000000000e+00
   5 -3.25757255999999995e-01
   6 1.03502368999999997e-01
   7 0.00000000000000000e+00
   8 0.00000000000000000e+00
   9 -9.10943795999999972e-02
  10 2.08889257000000006e+00
  11 0.00000000000000000e+00
  12 0.00000000000000000e+00
  13 -1.00722318000000000e+00
  14 1.63821462000000001e-01
  15 0.00000000000000000e+00
  16 0.00000000000000000e+00
  17 -1.10290456999999997e+00
  18 0.00000000000000000e+00
  19 -2.88692269000000001e-01
  20 -1.12437717000000004e+00
  21 -4.62452189000000027e-02
  22 0.00000000000000000e+00
  23 5.91127791000000014e-01
  24 -4.69491396999999977e-01
  25 -2.88692269000000001e-01
  26 -1.12437717000000004e+00
  27 -4.62452189000000027e-02
  28 0.00000000000000000e+00
  29 -5.91127791000000014e-01
  30 -4.69491396999999977e-01
 Ene= 3.85171983999999989e+00
 Sym= 1a
 Spin= Alpha
 Occup= 0.00000000000000000e+00
   1 0.00000000000000000e+00
   2 0.00000000000000000e+00
   3 0.00000000000000000e+00
   4 -4.62985603999999995e-01
   5 0.00000000000000000e+00
   6 0.00000000000000000e+00
   7 0.00000000000000000e+00
   8 7.35017726999999954e-02
   9 0.00000000000000000e+00
  10 0.00000000000000000e+00
  11 0.00000000000000000e+00
  12 -9.60407566999999962e-01
  13 0.00000000000000000e+00
  14 0.00000000000000000e+00
  15 0.00000000000000000e+00
  16 1.14721281000000008e+00
  17 0.00000000000000000e+00
  18 0.00000000000000000e+00
  19 3.85836285999999973e-01
  20 5.19145552000000010e-01
  21 2.41468824999999998e-01
  22 0.00000000000000000e+00
  23 -4.68460054999999986e-01
  24 3.62831979999999998e-01
  25 -3.85836285999999973e-01
  26 -5.19145552000000010e-01
  27 -2.41468824999999998e-01
  28 0.00000000000000000e+00
  29 -4.68460054999999986e-01
  30 -3.62831979999999998e-01
 Ene= 4.81557124999999964e+00
 Sym= 1a
 Spin= Alpha
 Occup= 0.00000000000000000e+00
   1 0.00000000000000000e+00
   2 0.00000000000000000e+00
   3 -1.26398261999999995e+00
   4 0.00000000000000000e+00
   5 0.00000000000000000e+00
   6 0.00000000000000000e+00
   7 1.39106083000000003e+00
   8 0.00000000000000000e+00
   9 0.00000000000000000e+00
  10 0.00000000000000000e+00
  11 -4.98541922999999998e-01
  12 0.00000000000000000e+00
  13 0.00000000000000000e+00
  14 0.00000000000000000e+00
  15 -2.50749351999999988e-02
  16 0.00000000000000000e+00
  17 0.00000000000000000e+00
  18 0.00000000000000000e+00
  19 0.00000000000000000e+00
  20 0.00000000000000000e+00
  21 0.00000000000000000e+00
  22 -5.80605450999999995e-02
  23 0.00000000000000000e+00
  24 0.00000000000000000e+00
  25 0.00000000000000000e+00
  26 0.00000000000000000e+00
  27 0.00000000000000000e+00
  28 -5.80605450999999995e-02
  29 0.00000000000000000e+00
  30 0.00000000000000000e+00
 Ene= 5.23610075000000030e+00
 Sym= 1a
 Spin= Alpha
 Occup= 0.00000000000000000e+00
   1 2.36298389999999997e-02
   2 4.28882261999999972e-02
   3 0.00000000000000000e+00
   4 0.00000000000000000e+00
   5 -1.24922390999999999e+00
   6 -2.24376353000000001e-01
   7 0.00000000000000000e+00
   8 0.00000000000000000e+00
   9 1.73700545000000006e+00
  10 -1.06457066999999994e+00
  11 0.00000000000000000e+00
  12 0.00000000000000000e+00
  13 -8.00688873000000023e-02
  14 -1.03865739999999998e-01
  15 0.00000000000000000e+00
  16 0.00000000000000000e+00
  17 3.74891240000000014e-01
  18 0.00000000000000000e+00
  19 2.81651066000000005e-01
  20 5.24573399999999967e-01
  21 1.35495000000000008e-02
  22 0.00000000000000000e+00
  23 -4.86884615999999992e-01
  24 2.86721214000000002e-01
  25 2.81651066000000005e-01
  26 5.24573399999999967e-01
  27 1.35495000000000008e-02
  28 0.00000000000000000e+00
  29 4.86884615999999992e-01
  30 2.86721214000000002e-01
 Ene= 5.65794603999999968e+00
 Sym= 1a
 Spin= Alpha
 Occup= 0.00000000000000000e+00
   1 0.00000000000000000e+00
   2 0.00000000000000000e+00
   3 0.00000000000000000e+00
   4 -1.24134381000000005e+00
   5 0.00000000000000000e+00
   6 0.00000000000000000e+00
   7 0.00000000000000000e+00
   8 2.01144003000000016e+00
   9 0.00000000000000000e+00
  10 0.00000000000000000e+00
  11 0.00000000000000000e+00
  12 -1.47640215999999991e-01
  13 0.00000000000000000e+00
  14 0.00000000000000000e+00
  15 0.00000000000000000e+00
  16 -6.63333543000000025e-01
  17 0.00000000000000000e+00
  18 0.00000000000000000e+00
  19 -3.42737948999999986e-01
  20 -5.07794209000000052e-01
  21 1.50460933999999991e-01
  22 0.00000000000000000e+00
  23 5.34299595999999988e-01
  24 -4.76307831999999987e-01
  25 3.42737948999999986e-01
  26 5.07794209000000052e-01
  27 -1.50460933999999991e-01
  28 0.00000000000000000e+00
  29 5.34299595999999988e-01
  30 4.76307831999999987e-01
 Ene= 4.99835601999999994e+01
 Sym= 1a
 Spin= Alpha
 Occup= 0.00000000000000000e+00
   1 -2.24655415000000014e+00
   2 2.33675354000000013e+00
   3 0.00000000000000000e+00
   4 0.00000000000000000e+00
   5 -1.79846305000000012e-02
   6 -2.68981952000000024e-01
   7 0.00000000000000000e+00
   8 0.00000000000000000e+00