water-def2                                                              
Stability RPBE1PBE                                                    def2TZVP            
Number of atoms                            I                3
Info1-9                                    I   N=           9
          17          15           0           0           0         110
           7          18       -1302
Full Title                                 C   N=           1
water-def2  
Route                                      C   N=          10
#P Stable=Opt # def2TZVP PBE1PBE # SCF=(XQC,MaxConventionalC
ycles=60,IntRep) # Integral=(Grid=UltraFine,Acc2E=12)       
Charge                                     I                0
Multiplicity                               I                1
Number of electrons                        I               10
Number of alpha electrons                  I                5
Number of beta electrons                   I                5
Number of basis functions                  I               43
Number of independent functions            I               43
Number of point charges in /Mol/           I                0
Number of translation vectors              I                0
Atomic numbers                             I   N=           3
           8           1           1
Nuclear charges                            R   N=           3
  8.00000000E+00  1.00000000E+00  1.00000000E+00
Current cartesian coordinates              R   N=           9
  1.36995476E-17  1.36995476E-17  2.23730591E-01  2.07919203E-16  1.43016688E+00
 -8.94922363E-01 -4.92660513E-16 -1.43016688E+00 -8.94922363E-01
Number of symbols in /Mol/                 I                0
Int Atom Types                             I   N=           3
           0           0           0
Force Field                                I                0
Atom Types                                 C   N=           3
                                    
MM charges                                 R   N=           3
  0.00000000E+00  0.00000000E+00  0.00000000E+00
Integer atomic weights                     I   N=           3
          16           1           1
Real atomic weights                        R   N=           3
  1.59949146E+01  1.00782504E+00  1.00782504E+00
Atom fragment info                         I   N=           3
           0           0           0
Atom residue num                           I   N=           3
           0           0           0
Nuclear spins                              I   N=           3
           0           1           1
Nuclear ZEff                               R   N=           3
 -5.60000000E+00 -1.00000000E+00 -1.00000000E+00
Nuclear ZNuc                               R   N=           3
  8.00000000E+00  1.00000000E+00  1.00000000E+00
Nuclear QMom                               R   N=           3
  0.00000000E+00  0.00000000E+00  0.00000000E+00
Nuclear GFac                               R   N=           3
  0.00000000E+00  2.79284600E+00  2.79284600E+00
MicOpt                                     I   N=           3
          -1          -1          -1
Number of residues                         I                0
Number of secondary structures             I                0
SymInf integers                            I   N=          26
           2           4           1           1           1          -1
          -1           1          -1           1           1           1
          -1           1           0           0           0           0
           0           0           0           0           0           0
           0           0
RotTr to input orientation                 R   N=          12
  1.00000000E+00 -1.83697020E-16 -6.12323400E-17  1.83697020E-16  1.00000000E+00
 -6.12323400E-17  6.12323400E-17  6.12323400E-17  1.00000000E+00  0.00000000E+00
  0.00000000E+00  0.00000000E+00
Number of contracted shells                I               19
Number of primitive shells                 I               32
Pure/Cartesian d shells                    I                0
Pure/Cartesian f shells                    I                0
Highest angular momentum                   I                3
Largest degree of contraction              I                6
Shell types                                I   N=          19
           0           0           0           0           0           1
           1           1          -2          -2          -3           0
           0           0           1           0           0           0
           1
Number of primitives per shell             I   N=          19
           6           2           1           1           1           4
           1           1           1           1           1           3
           1           1           1           3           1           1
           1
Shell to atom map                          I   N=          19
           1           1           1           1           1           1
           1           1           1           1           1           2
           2           2           2           3           3           3
           3
Primitive exponents                        R   N=          32
  2.70323826E+04  4.05238714E+03  9.22327227E+02  2.61240710E+02  8.53546414E+01
  3.10350352E+01  1.22608607E+01  4.99870760E+00  1.17031082E+00  4.64747410E-01
  1.85045364E-01  6.32749548E+01  1.46270494E+01  4.45012235E+00  1.52757996E+00
  5.29351179E-01  1.74784213E-01  2.31400000E+00  6.45000000E-01  1.42800000E+00
  3.40613410E+01  5.12357460E+00  1.16466260E+00  3.27230410E-01  1.03072410E-01
  8.00000000E-01  3.40613410E+01  5.12357460E+00  1.16466260E+00  3.27230410E-01
  1.03072410E-01  8.00000000E-01
Contraction coefficients                   R   N=          32
  5.72273352E-04  4.43532335E-03  2.30201077E-02  9.28224907E-02  2.93785000E-01
  6.74016045E-01  6.38399370E-01  3.95345871E-01  1.00000000E+00  1.00000000E+00
  1.00000000E+00  1.20183322E-02  8.30054218E-02  3.19917439E-01  7.07155429E-01
  1.00000000E+00  1.00000000E+00  1.00000000E+00  1.00000000E+00  1.00000000E+00
  2.54393072E-02  1.90085949E-01  8.52441130E-01  1.00000000E+00  1.00000000E+00
  1.00000000E+00  2.54393072E-02  1.90085949E-01  8.52441130E-01  1.00000000E+00
  1.00000000E+00  1.00000000E+00
Coordinates of each shell                  R   N=          57
  6.89423111E-34 -1.37884622E-33  2.23730591E-01  6.89423111E-34 -1.37884622E-33
  2.23730591E-01  6.89423111E-34 -1.37884622E-33  2.23730591E-01  6.89423111E-34
 -1.37884622E-33  2.23730591E-01  6.89423111E-34 -1.37884622E-33  2.23730591E-01
  6.89423111E-34 -1.37884622E-33  2.23730591E-01  6.89423111E-34 -1.37884622E-33
  2.23730591E-01  6.89423111E-34 -1.37884622E-33  2.23730591E-01  6.89423111E-34
 -1.37884622E-33  2.23730591E-01  6.89423111E-34 -1.37884622E-33  2.23730591E-01
  6.89423111E-34 -1.37884622E-33  2.23730591E-01  0.00000000E+00  1.43016688E+00
 -8.94922363E-01  0.00000000E+00  1.43016688E+00 -8.94922363E-01  0.00000000E+00
  1.43016688E+00 -8.94922363E-01  0.00000000E+00  1.43016688E+00 -8.94922363E-01
 -1.75144929E-16 -1.43016688E+00 -8.94922363E-01 -1.75144929E-16 -1.43016688E+00
 -8.94922363E-01 -1.75144929E-16 -1.43016688E+00 -8.94922363E-01 -1.75144929E-16
 -1.43016688E+00 -8.94922363E-01
Num ILSW                                   I              100
ILSW                                       I   N=         100
           0           0           0           0           2           1
           0           0           0           0        1009          -1
           5           0           0           0           0           0
           0           0           0           0           0           0
           1           0           0           0           0           0
           0           0      100000           0          -1           0
           0           0           0           0           0           0
           0           0           0           1           0           0
           0 -2000000000           1           0           0           0
           0           0           4          52           0           0
           0           0          13           0           0           0
           0           0           0           3           0           1
           0           0           0           0           0           0
           0           0           0           0           0           0
           0           0           0           0           0           0
           0           0           0           0           0           0
           0           0           0           0
Num RLSW                                   I               52
RLSW                                       R   N=          52
  7.50000000E-01  7.50000000E-01  1.00000000E+00  1.00000000E+00  2.50000000E-01
  0.00000000E+00  0.00000000E+00  1.00000000E+00  0.00000000E+00  0.00000000E+00
  0.00000000E+00  0.00000000E+00  1.00000000E+00  0.00000000E+00  0.00000000E+00
  0.00000000E+00  0.00000000E+00  1.00000000E+00  0.00000000E+00  0.00000000E+00
  0.00000000E+00  0.00000000E+00  1.00000000E+00  0.00000000E+00  0.00000000E+00
  0.00000000E+00  0.00000000E+00  1.00000000E+00  0.00000000E+00  0.00000000E+00
  0.00000000E+00  0.00000000E+00  1.00000000E+00  0.00000000E+00  0.00000000E+00
  0.00000000E+00  0.00000000E+00  0.00000000E+00  1.00000000E+00  1.00000000E+00
  0.00000000E+00  1.00000000E+00  0.00000000E+00  0.00000000E+00  0.00000000E+00
  0.00000000E+00  0.00000000E+00  0.00000000E+00  0.00000000E+00  0.00000000E+00
  0.00000000E+00  0.00000000E+00
ECP-MxAtEC                                 I           250000
ECP-MaxLECP                                I               10
ECP-MaxAtL                                 I          2250000
ECP-MxTECP                                 I         11250000
ECP-LenNCZ                                 I                0
ECP-KFirst                                 I   N=          30
           0           0           0           0           0           0
           0           0           0           0           0           0
           0           0           0           0           0           0
           0           0           0           0           0           0
           0           0           0           0           0           0
ECP-KLast                                  I   N=          30
           0           0           0           0           0           0
           0           0           0           0           0           0
           0           0           0           0           0           0
           0           0           0           0           0           0
           0           0           0           0           0           0
ECP-LMax                                   I   N=           3
           0           0           0
ECP-LPSkip                                 I   N=           3
           1           1           1
ECP-RNFroz                                 R   N=           3
  0.00000000E+00  0.00000000E+00  0.00000000E+00
ECP-NLP                                    I                0
ECP-CLP1                                   R      0.000000000000000E+00
ECP-CLP2                                   R      0.000000000000000E+00
ECP-ZLP                                    R      0.000000000000000E+00
MxBond                                     I                2
NBond                                      I   N=           3
           2           1           1
IBond                                      I   N=           6
           2           3           1           0           1           0
RBond                                      R   N=           6
  1.00000000E+00  1.00000000E+00  1.00000000E+00  0.00000000E+00  1.00000000E+00
  0.00000000E+00
Virial Ratio                               R      2.003491492486680E+00
SCF Energy                                 R     -7.637728562289536E+01
Total Energy                               R     -7.637728562289536E+01
RMS Density                                R      3.771003650912348E-09
Job Status                                 I                1
Nuclear derivative order                   I                0
External E-field                           R   N=          35
  0.00000000E+00  0.00000000E+00  0.00000000E+00  0.00000000E+00  0.00000000E+00
  0.00000000E+00  0.00000000E+00  0.00000000E+00  0.00000000E+00  0.00000000E+00
  0.00000000E+00  0.00000000E+00  0.00000000E+00  0.00000000E+00  0.00000000E+00
  0.00000000E+00  0.00000000E+00  0.00000000E+00  0.00000000E+00  0.00000000E+00
  0.00000000E+00  0.00000000E+00  0.00000000E+00  0.00000000E+00  0.00000000E+00
  0.00000000E+00  0.00000000E+00  0.00000000E+00  0.00000000E+00  0.00000000E+00
  0.00000000E+00  0.00000000E+00  0.00000000E+00  0.00000000E+00  0.00000000E+00
IOpCl                                      I                0
IROHF                                      I                0
Alpha Orbital Energies                     R   N=          43
 -1.92023372E+01 -1.03915927E+00 -5.44332978E-01 -4.04355818E-01 -3.26981910E-01
  3.10588061E-02  1.06332947E-01  3.72049483E-01  4.24802162E-01  4.44944816E-01
  4.55709411E-01  5.89479883E-01  6.13035585E-01  1.16637557E+00  1.19842860E+00
  1.30197622E+00  1.53823262E+00  1.65034503E+00  1.76941404E+00  1.99999921E+00
  2.07470640E+00  2.11156072E+00  2.30169058E+00  2.38607211E+00  2.60814471E+00
  2.62968148E+00  2.64122655E+00  2.79656509E+00  3.66779082E+00  3.94556444E+00
  5.11255376E+00  5.21957378E+00  5.39308548E+00  5.42141956E+00  5.46930832E+00
  6.06545848E+00  6.23983883E+00  6.33264471E+00  6.39191261E+00  6.45136850E+00
  6.91719625E+00  7.02356940E+00  4.33475276E+01
Alpha MO coefficients                      R   N=        1849
  4.35361088E-01  6.39856493E-01  3.27061673E-02 -2.04622931E-02  8.33478949E-03
  0.00000000E+00  0.00000000E+00 -1.79189194E-03  0.00000000E+00  0.00000000E+00
  2.80544556E-03  0.00000000E+00  0.00000000E+00 -1.04534153E-03  3.94286893E-05
  0.00000000E+00  0.00000000E+00 -1.87606741E-04  0.00000000E+00 -1.63305318E-04
  0.00000000E+00  0.00000000E+00  8.53582069E-04  0.00000000E+00 -1.32127436E-04
  0.00000000E+00  0.00000000E+00 -3.11865003E-04  0.00000000E+00  0.00000000E+00
  0.00000000E+00  7.91177777E-04  1.45669463E-03 -1.72811039E-03  0.00000000E+00
 -8.11646237E-04  5.66124239E-04  7.91177777E-04  1.45669463E-03 -1.72811039E-03
  0.00000000E+00  8.11646237E-04  5.66124239E-04 -9.71703740E-02 -2.29286014E-01
  3.29453349E-01  4.47236748E-01  1.52758724E-01  0.00000000E+00  0.00000000E+00
 -8.34931505E-02  0.00000000E+00  0.00000000E+00 -7.34697235E-02  0.00000000E+00
  0.00000000E+00 -1.09420415E-02  1.36025653E-03  0.00000000E+00  0.00000000E+00
 -4.33778120E-03  0.00000000E+00  5.01732913E-03  0.00000000E+00  0.00000000E+00
 -1.06330604E-02  0.00000000E+00  1.42446429E-03  0.00000000E+00  0.00000000E+00
  4.54722448E-03  0.00000000E+00  0.00000000E+00  0.00000000E+00  9.28991238E-02
  7.00692652E-02  6.36261756E-03  0.00000000E+00 -1.48194380E-02  8.37723212E-03
  9.28991238E-02  7.00692652E-02  6.36261756E-03  0.00000000E+00  1.48194380E-02
  8.37723212E-03  0.00000000E+00  0.00000000E+00  0.00000000E+00  0.00000000E+00
  0.00000000E+00  0.00000000E+00  3.81141395E-01  0.00000000E+00  0.00000000E+00
  3.05577893E-01  0.00000000E+00  0.00000000E+00  1.21246657E-01  0.00000000E+00
  0.00000000E+00  0.00000000E+00 -1.19211584E-02  0.00000000E+00  0.00000000E+00
  0.00000000E+00  0.00000000E+00 -2.70601661E-02  0.00000000E+00  0.00000000E+00
  0.00000000E+00  0.00000000E+00  1.20295098E-03  0.00000000E+00  0.00000000E+00
  0.00000000E+00 -5.06086566E-03  1.46250141E-01  1.85521426E-01  6.24506355E-02
  0.00000000E+00 -7.99271938E-03  1.74293511E-02 -1.46250141E-01 -1.85521426E-01
 -6.24506355E-02  0.00000000E+00 -7.99271938E-03 -1.74293511E-02 -3.67234693E-02
 -8.82427330E-02  1.37181576E-01  2.00451285E-01  2.20536962E-01  0.00000000E+00
  0.00000000E+00  4.11727390E-01  0.00000000E+00  0.00000000E+00  3.28973896E-01
  0.00000000E+00  0.00000000E+00  2.30717719E-01 -4.65674029E-03  0.00000000E+00
  0.00000000E+00  2.43114125E-03  0.00000000E+00 -2.68504998E-02  0.00000000E+00
  0.00000000E+00 -3.93679006E-04  0.00000000E+00  1.03761465E-03  0.00000000E+00
  0.00000000E+00 -3.72038807E-03  0.00000000E+00  0.00000000E+00  0.00000000E+00
 -8.66815202E-02 -1.24623691E-01 -4.13479073E-02  0.00000000E+00  1.72595671E-02
  9.99484403E-03 -8.66815202E-02 -1.24623691E-01 -4.13479073E-02  0.00000000E+00
 -1.72595671E-02  9.99484403E-03  0.00000000E+00  0.00000000E+00  0.00000000E+00
  0.00000000E+00  0.00000000E+00  4.71337886E-01  0.00000000E+00  0.00000000E+00
  3.93145826E-01  0.00000000E+00  0.00000000E+00  3.31572938E-01  0.00000000E+00
  0.00000000E+00  0.00000000E+00 -4.30607640E-03  0.00000000E+00  0.00000000E+00
  0.00000000E+00  0.00000000E+00 -2.73394464E-02  0.00000000E+00  0.00000000E+00
  0.00000000E+00  0.00000000E+00  2.15980024E-03  0.00000000E+00  0.00000000E+00
  0.00000000E+00 -5.04436284E-03  0.00000000E+00  0.00000000E+00  0.00000000E+00
  0.00000000E+00  2.59947135E-02  0.00000000E+00  0.00000000E+00  0.00000000E+00
  0.00000000E+00  0.00000000E+00  2.59947135E-02  0.00000000E+00  0.00000000E+00
 -3.27212110E-02 -8.31091829E-02  1.90251472E-01 -4.74057331E-02  1.18141319E+00
  0.00000000E+00  0.00000000E+00 -1.57121457E-01  0.00000000E+00  0.00000000E+00
 -1.12856655E-01  0.00000000E+00  0.00000000E+00 -3.34969080E-01  1.51719399E-03
  0.00000000E+00  0.00000000E+00  1.70595467E-03  0.00000000E+00  8.58014131E-03
  0.00000000E+00  0.00000000E+00  6.91141158E-03  0.00000000E+00 -3.92677460E-04
  0.00000000E+00  0.00000000E+00  1.02531128E-03  0.00000000E+00  0.00000000E+00
  0.00000000E+00 -3.70389474E-02 -8.52488521E-02 -9.44450596E-01  0.00000000E+00
 -2.80816639E-02  1.91754221E-02 -3.70389474E-02 -8.52488521E-02 -9.44450596E-01
  0.00000000E+00  2.80816639E-02  1.91754221E-02  0.00000000E+00  0.00000000E+00
  0.00000000E+00  0.00000000E+00  0.00000000E+00  0.00000000E+00 -2.47153973E-01
  0.00000000E+00  0.00000000E+00 -1.13084546E-01  0.00000000E+00  0.00000000E+00
 -6.90365826E-01  0.00000000E+00  0.00000000E+00  0.00000000E+00 -1.48000644E-03
  0.00000000E+00  0.00000000E+00  0.00000000E+00  0.00000000E+00 -2.36710671E-02
  0.00000000E+00  0.00000000E+00  0.00000000E+00  0.00000000E+00  2.93316321E-03
  0.00000000E+00  0.00000000E+00  0.00000000E+00  8.15570405E-04  3.39973310E-02
  1.34235898E-02  1.66067890E+00  0.00000000E+00  3.52054357E-02 -3.34446574E-02
 -3.39973310E-02 -1.34235898E-02 -1.66067890E+00  0.00000000E+00  3.52054357E-02
  3.34446574E-02  0.00000000E+00  0.00000000E+00  0.00000000E+00  0.00000000E+00
  0.00000000E+00  0.00000000E+00 -1.16917461E-01  0.00000000E+00  0.00000000E+00
 -3.65257343E-01  0.00000000E+00  0.00000000E+00 -1.18169295E+00  0.00000000E+00
  0.00000000E+00  0.00000000E+00 -3.24702824E-02  0.00000000E+00  0.00000000E+00
  0.00000000E+00  0.00000000E+00  1.27057086E-01  0.00000000E+00  0.00000000E+00
  0.00000000E+00  0.00000000E+00 -7.08373088E-03  0.00000000E+00  0.00000000E+00
  0.00000000E+00  1.11888335E-02  1.22972824E-01  1.46205965E+00 -5.51252300E-01
  0.00000000E+00 -9.16287497E-02  4.67867962E-02 -1.22972824E-01 -1.46205965E+00
  5.51252300E-01  0.00000000E+00 -9.16287497E-02 -4.67867962E-02  3.59352508E-02
  7.89064319E-02  2.81957407E-02 -8.89592404E-01 -5.58669845E-01  0.00000000E+00
  0.00000000E+00 -6.74124079E-02  0.00000000E+00  0.00000000E+00 -4.60796469E-02
  0.00000000E+00  0.00000000E+00  1.46082145E+00  6.28838600E-03  0.00000000E+00
  0.00000000E+00 -1.81035312E-02  0.00000000E+00 -3.83160284E-02  0.00000000E+00
  0.00000000E+00  5.76966161E-02  0.00000000E+00 -6.89707416E-03  0.00000000E+00
  0.00000000E+00 -1.44746729E-02  0.00000000E+00  0.00000000E+00  0.00000000E+00
  8.11338986E-02  1.46743673E+00 -3.76430486E-01  0.00000000E+00 -6.94973019E-02
  6.62539467E-02  8.11338986E-02  1.46743673E+00 -3.76430486E-01  0.00000000E+00
  6.94973019E-02  6.62539467E-02  0.00000000E+00  0.00000000E+00  0.00000000E+00
  0.00000000E+00  0.00000000E+00 -3.12389506E-01  0.00000000E+00  0.00000000E+00
 -7.05490864E-01  0.00000000E+00  0.00000000E+00  1.23686395E+00  0.00000000E+00
  0.00000000E+00  0.00000000E+00  6.70932477E-03  0.00000000E+00  0.00000000E+00
  0.00000000E+00  0.00000000E+00 -7.48328808E-03  0.00000000E+00  0.00000000E+00
  0.00000000E+00  0.00000000E+00 -6.43310678E-04  0.00000000E+00  0.00000000E+00
  0.00000000E+00  1.93000101E-03  0.00000000E+00  0.00000000E+00  0.00000000E+00
  0.00000000E+00 -3.58194320E-03  0.00000000E+00  0.00000000E+00  0.00000000E+00
  0.00000000E+00  0.00000000E+00 -3.58194320E-03  0.00000000E+00  0.00000000E+00
  7.63419199E-03  1.77855053E-02  1.27824131E-02 -2.41315405E-01 -2.17380957E-01
  0.00000000E+00  0.00000000E+00  3.28849432E-01  0.00000000E+00  0.00000000E+00
  7.75747880E-01  0.00000000E+00  0.00000000E+00 -6.58266007E-01 -6.04687896E-03
  0.00000000E+00  0.00000000E+00 -9.74229247E-03  0.00000000E+00 -7.51639688E-03
  0.00000000E+00  0.00000000E+00  8.92504410E-03  0.00000000E+00 -3.90707289E-03
  0.00000000E+00  0.00000000E+00 -9.14251715E-03  0.00000000E+00  0.00000000E+00
  0.00000000E+00  8.32162086E-02  8.80764877E-01 -5.75116646E-01  0.00000000E+00
 -1.39850697E-02  3.47111639E-02  8.32162086E-02  8.80764877E-01 -5.75116646E-01
  0.00000000E+00  1.39850697E-02  3.47111639E-02  0.00000000E+00  0.00000000E+00
  0.00000000E+00  0.00000000E+00  0.00000000E+00  0.00000000E+00 -3.48113329E-01
  0.00000000E+00  0.00000000E+00 -7.69802962E-01  0.00000000E+00  0.00000000E+00
  2.03454908E+00  0.00000000E+00  0.00000000E+00  0.00000000E+00  1.02364380E-02
  0.00000000E+00  0.00000000E+00  0.00000000E+00  0.00000000E+00 -5.41137062E-02
  0.00000000E+00  0.00000000E+00  0.00000000E+00  0.00000000E+00  2.01030187E-03
  0.00000000E+00  0.00000000E+00  0.00000000E+00 -1.13323330E-04  5.95980352E-02
  1.08400550E-01 -1.62723682E+00  0.00000000E+00  2.67228753E-02 -2.82698807E-02
 -5.95980352E-02 -1.08400550E-01  1.62723682E+00  0.00000000E+00  2.67228753E-02
  2.82698807E-02  5.10137678E-02  1.05998278E-01  1.02252898E-01 -2.25268266E+00
  4.86871967E+00  0.00000000E+00  0.00000000E+00  7.10536893E-02  0.00000000E+00
  0.00000000E+00 -8.90751904E-03  0.00000000E+00  0.00000000E+00 -1.28419643E+00
 -3.97054446E-03  0.00000000E+00  0.00000000E+00  1.69875200E-02  0.00000000E+00
  2.77672240E-02  0.00000000E+00  0.00000000E+00 -4.53748670E-02  0.00000000E+00
  5.67874643E-03  0.00000000E+00  0.00000000E+00  1.10142183E-02  0.00000000E+00
  0.00000000E+00  0.00000000E+00  1.95582358E-02 -9.43067037E-01 -9.63958167E-01
  0.00000000E+00  5.79501540E-02 -6.66441261E-02  1.95582358E-02 -9.43067037E-01
 -9.63958167E-01  0.00000000E+00 -5.79501540E-02 -6.66441261E-02  3.53392265E-03
  9.38267847E-03 -4.17238001E-02 -5.70032553E-02  9.17484788E-01  0.00000000E+00
  0.00000000E+00 -7.99169227E-02  0.00000000E+00  0.00000000E+00 -1.70842829E-01
  0.00000000E+00  0.00000000E+00 -5.73714358E-01 -1.02190664E-02  0.00000000E+00
  0.00000000E+00 -6.28296748E-03  0.00000000E+00 -4.94312309E-01  0.00000000E+00
  0.00000000E+00 -1.45391880E-01  0.00000000E+00  3.70720099E-03  0.00000000E+00
  0.00000000E+00  8.44678653E-03  0.00000000E+00  0.00000000E+00  0.00000000E+00
  3.98180332E-02 -5.99909048E-01 -4.75085899E-02  0.00000000E+00  3.11434276E-01
  3.00678310E-01  3.98180332E-02 -5.99909048E-01 -4.75085899E-02  0.00000000E+00
 -3.11434276E-01  3.00678310E-01  0.00000000E+00  0.00000000E+00  0.00000000E+00
  0.00000000E+00  0.00000000E+00  0.00000000E+00  0.00000000E+00  0.00000000E+00
  0.00000000E+00  0.00000000E+00  0.00000000E+00  0.00000000E+00  0.00000000E+00
  0.00000000E+00  0.00000000E+00  0.00000000E+00  0.00000000E+00  0.00000000E+00
  8.03719671E-03  0.00000000E+00  0.00000000E+00  0.00000000E+00  0.00000000E+00
  5.45494596E-01  0.00000000E+00  0.00000000E+00  0.00000000E+00  0.00000000E+00
  9.93432323E-03  0.00000000E+00  0.00000000E+00  0.00000000E+00  0.00000000E+00
  0.00000000E+00  4.22498675E-01  0.00000000E+00  0.00000000E+00  0.00000000E+00
  0.00000000E+00  0.00000000E+00 -4.22498675E-01  0.00000000E+00  0.00000000E+00
  0.00000000E+00  0.00000000E+00  0.00000000E+00  0.00000000E+00  0.00000000E+00
  9.91621693E-02  0.00000000E+00  0.00000000E+00  5.57433056E-02  0.00000000E+00
  0.00000000E+00  2.09809592E-01  0.00000000E+00  0.00000000E+00  0.00000000E+00
  9.52370928E-04  0.00000000E+00  0.00000000E+00  0.00000000E+00  0.00000000E+00
  6.71739921E-01  0.00000000E+00  0.00000000E+00  0.00000000E+00  0.00000000E+00
 -7.91698795E-03  0.00000000E+00  0.00000000E+00  0.00000000E+00 -1.18171812E-02
  0.00000000E+00  0.00000000E+00  0.00000000E+00  0.00000000E+00 -3.80790925E-01
  0.00000000E+00  0.00000000E+00  0.00000000E+00  0.00000000E+00  0.00000000E+00
 -3.80790925E-01  0.00000000E+00  0.00000000E+00  0.00000000E+00  0.00000000E+00
  0.00000000E+00  0.00000000E+00  0.00000000E+00  0.00000000E+00  1.15653618E-01
  0.00000000E+00  0.00000000E+00 -9.46697892E-01  0.00000000E+00  0.00000000E+00
 -9.44994762E-01  0.00000000E+00  0.00000000E+00  0.00000000E+00 -1.05007717E-02
  0.00000000E+00  0.00000000E+00  0.00000000E+00  0.00000000E+00  1.23073417E+00
  0.00000000E+00  0.00000000E+00  0.00000000E+00  0.00000000E+00 -5.37250374E-02
  0.00000000E+00  0.00000000E+00  0.00000000E+00  4.29597369E-02 -3.67104659E-01
  2.20885036E+00 -5.25890532E-01  0.00000000E+00 -1.90137883E-01  4.34954922E-01
  3.67104659E-01 -2.20885036E+00  5.25890532E-01  0.00000000E+00 -1.90137883E-01
 -4.34954922E-01 -1.51349871E-02 -5.11165936E-02  3.95083672E-01 -7.19069899E-01
 -1.89749608E+00  0.00000000E+00  0.00000000E+00 -9.64088338E-02  0.00000000E+00
  0.00000000E+00  5.31566485E-01  0.00000000E+00  0.00000000E+00  9.70533495E-01
  4.32628429E-03  0.00000000E+00  0.00000000E+00 -4.58390964E-03  0.00000000E+00
 -3.31953511E-01  0.00000000E+00  0.00000000E+00  1.11706089E+00  0.00000000E+00
 -2.02063641E-02  0.00000000E+00  0.00000000E+00 -6.41817777E-02  0.00000000E+00
  0.00000000E+00  0.00000000E+00 -3.38605541E-01  2.10277213E+00 -1.82559964E-01
  0.00000000E+00 -2.35438333E-01  1.52228775E-01 -3.38605541E-01  2.10277213E+00
 -1.82559964E-01  0.00000000E+00  2.35438333E-01  1.52228775E-01  0.00000000E+00
  0.00000000E+00  0.00000000E+00  0.00000000E+00  0.00000000E+00  0.00000000E+00
 -1.61676658E-01  0.00000000E+00  0.00000000E+00  2.52186758E-01  0.00000000E+00
  0.00000000E+00 -3.66186378E-01  0.00000000E+00  0.00000000E+00  0.00000000E+00
  1.14979349E-02  0.00000000E+00  0.00000000E+00  0.00000000E+00  0.00000000E+00
 -4.45776795E-01  0.00000000E+00  0.00000000E+00  0.00000000E+00  0.00000000E+00
  2.42762362E-02  0.00000000E+00  0.00000000E+00  0.00000000E+00 -1.12600449E-02
  1.06897611E-01 -4.16192948E-01  3.44678847E-01  0.00000000E+00  5.65930527E-01
  5.38349494E-01 -1.06897611E-01  4.16192948E-01 -3.44678847E-01  0.00000000E+00
  5.65930527E-01 -5.38349494E-01  1.46044872E-02  6.35923677E-02 -8.26543360E-01
  2.64797590E+00 -5.41347113E-02  0.00000000E+00  0.00000000E+00  4.01571958E-01
  0.00000000E+00  0.00000000E+00 -1.37429363E+00  0.00000000E+00  0.00000000E+00
  1.15615784E-02 -9.12105809E-04  0.00000000E+00  0.00000000E+00  2.67872748E-03
  0.00000000E+00 -2.14323632E-01  0.00000000E+00  0.00000000E+00 -6.07672781E-03
  0.00000000E+00  7.29808559E-02  0.00000000E+00  0.00000000E+00  1.44324188E-01
  0.00000000E+00  0.00000000E+00  0.00000000E+00  6.51160862E-01 -1.98029341E+00
  4.95139706E-01  0.00000000E+00  6.01782636E-01 -6.09999236E-01  6.51160862E-01
 -1.98029341E+00  4.95139706E-01  0.00000000E+00 -6.01782636E-01 -6.09999236E-01
  0.00000000E+00  0.00000000E+00  0.00000000E+00  0.00000000E+00  0.00000000E+00
 -3.19344725E-01  0.00000000E+00  0.00000000E+00  1.48299794E-01  0.00000000E+00
  0.00000000E+00 -4.79104789E-01  0.00000000E+00  0.00000000E+00  0.00000000E+00
 -9.76180233E-03  0.00000000E+00  0.00000000E+00  0.00000000E+00  0.00000000E+00
  8.89014450E-01  0.00000000E+00  0.00000000E+00  0.00000000E+00  0.00000000E+00
 -9.15054535E-03  0.00000000E+00  0.00000000E+00  0.00000000E+00 -1.23768120E-02
  0.00000000E+00  0.00000000E+00  0.00000000E+00  0.00000000E+00  7.60544122E-01
  0.00000000E+00  0.00000000E+00  0.00000000E+00  0.00000000E+00  0.00000000E+00
  7.60544122E-01  0.00000000E+00  0.00000000E+00  0.00000000E+00  0.00000000E+00
  0.00000000E+00  0.00000000E+00  0.00000000E+00  0.00000000E+00  0.00000000E+00
  0.00000000E+00  0.00000000E+00  0.00000000E+00  0.00000000E+00  0.00000000E+00
  0.00000000E+00  0.00000000E+00  0.00000000E+00  0.00000000E+00  0.00000000E+00
  0.00000000E+00 -1.42808914E-02  0.00000000E+00  0.00000000E+00  0.00000000E+00
  0.00000000E+00  1.07746016E+00  0.00000000E+00  0.00000000E+00  0.00000000E+00
  0.00000000E+00  3.53936963E-03  0.00000000E+00  0.00000000E+00  0.00000000E+00
  0.00000000E+00  0.00000000E+00 -7.61058697E-01  0.00000000E+00  0.00000000E+00
  0.00000000E+00  0.00000000E+00  0.00000000E+00  7.61058697E-01  0.00000000E+00
  0.00000000E+00  0.00000000E+00  0.00000000E+00  0.00000000E+00  0.00000000E+00
  0.00000000E+00  0.00000000E+00 -4.11121174E-01  0.00000000E+00  0.00000000E+00
  2.17238753E+00  0.00000000E+00  0.00000000E+00 -3.79083052E-01  0.00000000E+00
  0.00000000E+00  0.00000000E+00  3.84473314E-02  0.00000000E+00  0.00000000E+00
  0.00000000E+00  0.00000000E+00 -1.62597543E-01  0.00000000E+00  0.00000000E+00
  0.00000000E+00  0.00000000E+00  9.64796428E-02  0.00000000E+00  0.00000000E+00
  0.00000000E+00 -9.78477495E-02  4.83834942E-01 -1.92710348E+00  7.97429826E-01
  0.00000000E+00  8.46414127E-01 -7.42624028E-01 -4.83834942E-01  1.92710348E+00
 -7.97429826E-01  0.00000000E+00  8.46414127E-01  7.42624028E-01  1.48937553E-02
  5.53991223E-02 -4.97147756E-01  1.09204582E+00  5.97957239E-01  0.00000000E+00
  0.00000000E+00 -4.53648049E-01  0.00000000E+00  0.00000000E+00 -4.47228456E-03