[Molden Format]
[Title]
 Molden file created by orca_2mkl for BaseName=/scratch/nmr/personal/emansikk19/akseli_mansikkamaki/kaijo/gga02/2509721/water

[Atoms] AU
O    1   8          0.0000000000         0.0000000000         0.2237305918 
H    2   1         -0.0000000000         1.4301668857        -0.8949223674 
H    3   1         -0.0000000000        -1.4301668857        -0.8949223674 
[GTO]
  1 0
s   6 1.0 
    27129.7236970000        -1.3234874362
     4027.0930191000        -1.8037542218
      922.4174896600        -2.8382552636
      260.4637393100        -4.3521041987
       85.4618186120        -5.8698341892
       31.0324506160        -6.3103924670
s   2 1.0 
       12.3927428510        -2.9410936390
        5.1198045492        -0.9908121807
s   1 1.0 
        1.1764031300         0.8050580940
s   1 1.0 
        0.4654613844         0.4016269386
s   1 1.0 
        0.1850087120         0.2010500692
p   4 1.0 
       63.3475235510         3.0953015469
       14.6246846980         3.3927967860
        4.4491599423         2.9482922336
        1.5277866789         1.7113020872
p   1 1.0 
        0.5294345837         0.6437325528
p   1 1.0 
        0.1747910545         0.1610976076
d   1 1.0 
        2.3140000000        12.3767310624
d   1 1.0 
        0.6450000000         1.3234257612
f   1 1.0 
        1.4280000000        12.7097950062

  2 0
s   3 1.0 
       34.0613410000         0.2556299169
        5.1235746000         0.4613599649
        1.1646626000         0.6811214941
s   1 1.0 
        0.3272304100         0.3083545312
s   1 1.0 
        0.1030724100         0.1296483265
p   1 1.0 
        0.8000000000         1.0784563492

  3 0
s   3 1.0 
       34.0613410000         0.2556299169
        5.1235746000         0.4613599649
        1.1646626000         0.6811214941
s   1 1.0 
        0.3272304100         0.3083545312
s   1 1.0 
        0.1030724100         0.1296483265
p   1 1.0 
        0.8000000000         1.0784563492

[5D]
[7F]
[9G]
[MO]
 Sym=     1a
 Ene= -1.87569048135936E+01
 Spin= Alpha
 Occup= 2.000000
  1      -0.436380615479
  2      -0.637015764510
  3       0.038809464237
  4      -0.025997030803
  5       0.010628042470
  6       0.000000000000
  7       0.000000000000
  8      -0.001815115264
  9      -0.000000000000
 10      -0.000000000000
 11       0.003299765155
 12       0.000000000000
 13       0.000000000000
 14      -0.001274258463
 15       0.000044917972
 16      -0.000000000000
 17      -0.000000000000
 18      -0.000246972143
 19      -0.000000000000
 20      -0.000182958990
 21       0.000000000000
 22       0.000000000000
 23       0.001049859155
 24      -0.000000000000
 25      -0.000182315077
 26       0.000000000000
 27      -0.000000000000
 28      -0.000416815155
 29      -0.000000000000
 30      -0.000000000000
 31      -0.000000000000
 32       0.000951893917
 33       0.001779930251
 34      -0.002199796046
 35       0.000000000000
 36      -0.001002903168
 37       0.000725529489
 38       0.000951893917
 39       0.001779930251
 40      -0.002199796046
 41       0.000000000000
 42       0.001002903168
 43       0.000725529489
 Sym=     1a
 Ene= -9.25784614022253E-01
 Spin= Alpha
 Occup= 2.000000
  1       0.097970757012
  2       0.227639343466
  3       0.329858863152
  4       0.440204318171
  5       0.149551951081
  6       0.000000000001
  7       0.000000000003
  8      -0.093343468527
  9      -0.000000000002
 10       0.000000000010
 11      -0.077396754618
 12       0.000000000004
 13      -0.000000000011
 14      -0.012657191461
 15       0.001506902331
 16       0.000000000000
 17      -0.000000000000
 18      -0.004420097447
 19       0.000000000000
 20       0.005366317692
 21      -0.000000000001
 22      -0.000000000001
 23      -0.010588931259
 24      -0.000000000001
 25       0.001268907419
 26      -0.000000000000
 27       0.000000000001
 28       0.004298211014
 29       0.000000000001
 30       0.000000000000
 31      -0.000000000000
 32       0.095620003339
 33       0.071300269107
 34       0.008108845417
 35       0.000000000000
 36      -0.015133914519
 37       0.008229440744
 38       0.095620003338
 39       0.071300269120
 40       0.008108845379
 41      -0.000000000002
 42       0.015133914521
 43       0.008229440745
 Sym=     1a
 Ene= -4.77114183579669E-01
 Spin= Alpha
 Occup= 2.000000
  1       0.000000000001
  2      -0.000000000001
  3      -0.000000000025
  4       0.000000000119
  5      -0.000000000354
  6      -0.000000000001
  7      -0.386259407958
  8      -0.000000000011
  9      -0.000000000001
 10      -0.296046787424
 11       0.000000000016
 12       0.000000000000
 13      -0.119865796990
 14       0.000000000097
 15       0.000000000001
 16       0.000000000000
 17       0.011488278082
 18      -0.000000000003
 19      -0.000000000001
 20      -0.000000000006
 21      -0.000000000001
 22       0.023833840074
 23       0.000000000022
 24       0.000000000000
 25       0.000000000000
 26      -0.000000000000
 27      -0.000966194528
 28      -0.000000000002
 29       0.000000000001
 30      -0.000000000000
 31      -0.004773498389
 32      -0.149586131936
 33      -0.185189829318
 34      -0.071388428476
 35       0.000000000000
 36       0.007592776211
 37      -0.017367816908
 38       0.149586131933
 39       0.185189829548
 40       0.071388428611
 41      -0.000000000001
 42       0.007592776246
 43       0.017367816922
 Sym=     1a
 Ene= -3.34440196153280E-01
 Spin= Alpha
 Occup= 2.000000
  1      -0.038902854920
  2      -0.092012831040
  3      -0.142411721352
  4      -0.205122652842
  5      -0.236817745876
  6       0.000000000012
  7       0.000000000004
  8      -0.413578641736
  9       0.000000000003
 10       0.000000000023
 11      -0.316169237424
 12       0.000000000025
 13      -0.000000000043
 14      -0.234924330391
 15       0.004645622463
 16      -0.000000000000
 17      -0.000000000000
 18      -0.002066907774
 19       0.000000000001
 20       0.026509917220
 21      -0.000000000002
 22       0.000000000000
 23       0.002208188982
 24       0.000000000000
 25      -0.001106820904
 26       0.000000000000
 27       0.000000000000
 28       0.003370141346
 29      -0.000000000001
 30       0.000000000000
 31      -0.000000000001
 32       0.087472758777
 33       0.124649275615
 34       0.047778005153
 35      -0.000000000000
 36      -0.016920845939
 37      -0.010779438039
 38       0.087472758763
 39       0.124649275597
 40       0.047778005066
 41       0.000000000001
 42       0.016920845940
 43      -0.010779438041
 Sym=     1a
 Ene= -2.56286907934947E-01
 Spin= Alpha
 Occup= 2.000000
  1       0.000000000001
  2       0.000000000003
  3       0.000000000031
  4      -0.000000000114
  5       0.000000000123
  6       0.475036603281
  7      -0.000000000002
  8       0.000000000006
  9       0.381217065832
 10      -0.000000000008
 11       0.000000000049
 12       0.342326716708
 13       0.000000000011
 14      -0.000000000009
 15      -0.000000000000
 16      -0.004325926475
 17      -0.000000000000
 18      -0.000000000001
 19      -0.000000000000
 20      -0.000000000003
 21      -0.027393581575
 22       0.000000000001
 23       0.000000000014
 24       0.000000000001
 25      -0.000000000001
 26       0.002120233953
 27      -0.000000000000
 28      -0.000000000002
 29       0.000000000000
 30       0.004898768505
 31      -0.000000000000
 32      -0.000000000007
 33       0.000000000070
 34      -0.000000000097
 35       0.026401832744
 36      -0.000000000016
 37       0.000000000011
 38      -0.000000000009
 39       0.000000000066
 40      -0.000000000081
 41       0.026401832744
 42       0.000000000014
 43       0.000000000012
 Sym=     1a
 Ene= -1.67145332395197E-03
 Spin= Alpha
 Occup= 0.000000
  1      -0.034968839683
  2      -0.086781638638
  3      -0.190366809671
  4      -0.007904530562
  5      -1.112939114750
  6       0.000000000010
  7      -0.000000000130
  8       0.173590749732
  9       0.000000000074
 10       0.000000000301
 11       0.132112102424
 12      -0.000000000059
 13      -0.000000000876
 14       0.323721233538
 15      -0.001722735856
 16      -0.000000000000
 17       0.000000000001
 18      -0.001999674468
 19       0.000000000001
 20      -0.009446230340
 21       0.000000000004
 22      -0.000000000083
 23      -0.005941620695
 24       0.000000000006
 25       0.000254375383
 26       0.000000000001
 27       0.000000000010
 28      -0.001417499021
 29      -0.000000000005
 30      -0.000000000001
 31       0.000000000002
 32       0.042744015373
 33       0.118686873619
 34       0.903427682702
 35       0.000000000003
 36       0.027817674157
 37      -0.018570327480
 38       0.042744015355
 39       0.118686873778
 40       0.903427680198
 41       0.000000000020
 42      -0.027817673993
 43      -0.018570327360
 Sym=     1a
 Ene= 7.38767057885817E-02
 Spin= Alpha
 Occup= 0.000000
  1      -0.000000000022
  2      -0.000000000038
  3       0.000000000089
  4      -0.000000000710
  5       0.000000000928
  6      -0.000000000014
  7       0.271733297294
  8       0.000000000098
  9      -0.000000000103
 10       0.148143479294
 11       0.000000000063
 12       0.000000000159
 13       0.668042730972
 14      -0.000000000383
 15      -0.000000000005
 16       0.000000000003
 17       0.002269071312
 18       0.000000000004
 19       0.000000000001
 20       0.000000000010
 21      -0.000000000011
 22       0.019895398866
 23      -0.000000000053
 24      -0.000000000016
 25       0.000000000007
 26      -0.000000000002
 27      -0.002669128876
 28       0.000000000012
 29       0.000000000007
 30       0.000000000001
 31       0.001232844373
 32      -0.041652660967
 33      -0.070770390345
 34      -1.580953759309
 35       0.000000000008
 36      -0.033419078532
 37       0.032761075760
 38       0.041652661089
 39       0.070770389460
 40       1.580953759849
 41      -0.000000000038
 42      -0.033419078657
 43      -0.032761075795
 Sym=     1a
 Ene= 3.27466757786363E-01
 Spin= Alpha
 Occup= 0.000000
  1       0.000000000000
  2      -0.000000000003
  3      -0.000000000086
  4       0.000000000051
  5       0.000000001858
  6       0.000000000008
  7       0.122534287458
  8       0.000000000007
  9       0.000000000015
 10       0.366623694106
 11      -0.000000000305
 12      -0.000000000032
 13       1.082865230238
 14      -0.000000000970
 15      -0.000000000006
 16      -0.000000000001
 17       0.031442912393
 18       0.000000000019
 19       0.000000000001
 20       0.000000000040
 21       0.000000000009
 22      -0.114907064693
 23      -0.000000000152
 24       0.000000000012
 25       0.000000000011
 26      -0.000000000001
 27       0.006571275436
 28       0.000000000027
 29      -0.000000000001
 30      -0.000000000002
 31       0.010382135945
 32      -0.133189402648
 33      -1.431113995374
 34       0.656986547231
 35      -0.000000000006
 36       0.088715036362
 37      -0.042675103454
 38       0.133189402586
 39       1.431113992579
 40      -0.656986547076
 41       0.000000000019
 42       0.088715036066
 43       0.042675103226
 Sym=     1a
 Ene= 3.81157139469610E-01
 Spin= Alpha
 Occup= 0.000000
  1       0.037590544921
  2       0.081896986293
  3      -0.017853437099
  4       0.901583373520
  5       0.508518397337
  6       0.000000001312
  7      -0.000000000163
  8       0.025936246650
  9       0.000000002827
 10      -0.000000000199
 11      -0.050489381655
 12      -0.000000004963
 13      -0.000000000122
 14      -1.325767127800
 15      -0.005110346692
 16      -0.000000000028
 17      -0.000000000009
 18       0.018743834356
 19      -0.000000000001
 20       0.037526973799
 21       0.000000000038
 22      -0.000000000049
 23      -0.051677317269
 24       0.000000000007
 25       0.006939008260
 26       0.000000000003
 27       0.000000000004
 28       0.014365163621
 29      -0.000000000000
 30       0.000000000007
 31       0.000000000002
 32      -0.101362961948
 33      -1.532574698644
 34       0.475183619042
 35       0.000000000031
 36       0.064977347832
 37      -0.069320038803
 38      -0.101362962104
 39      -1.532574699700
 40       0.475183619928
 41       0.000000000016
 42      -0.064977347789
 43      -0.069320038712
 Sym=     1a
 Ene= 3.98232595288772E-01
 Spin= Alpha
 Occup= 0.000000
  1      -0.000000000142
  2      -0.000000000301
  3      -0.000000000124
  4      -0.000000002535
  5       0.000000001000
  6       0.328260360609
  7       0.000000000139
  8      -0.000000004981
  9       0.691748133028
 10       0.000000000278
 11      -0.000000010592
 12      -1.225700407376
 13      -0.000000000736
 14       0.000000016975
 15       0.000000000114
 16      -0.006706801300
 17      -0.000000000004
 18       0.000000000035
 19       0.000000000001
 20      -0.000000000093
 21       0.007289186492
 22       0.000000000037
 23       0.000000000088
 24      -0.000000000006
 25       0.000000000016
 26       0.000711483702
 27      -0.000000000002
 28       0.000000000055
 29      -0.000000000001
 30       0.002108604055
 31      -0.000000000001
 32      -0.000000000682
 33      -0.000000003548
 34       0.000000005826
 35       0.000634249955
 36      -0.000000000096
 37      -0.000000000069
 38      -0.000000000627
 39      -0.000000003619
 40       0.000000005008
 41       0.000634249952
 42       0.000000000062
 43      -0.000000000131
 Sym=     1a
 Ene= 4.01181106553816E-01
 Spin= Alpha
 Occup= 0.000000
  1      -0.001951770592
  2      -0.004947231425
  3       0.009795285588
  4      -0.113287956685
  5      -0.067585820171
  6       0.000000004662
  7      -0.000000000044
  8       0.347650746980
  9       0.000000009740
 10      -0.000000000303
 11       0.747426910064
 12      -0.000000017317
 13       0.000000000625
 14      -0.866105953035
 15      -0.006871137953
 16      -0.000000000095
 17       0.000000000002
 18      -0.006874857582
 19       0.000000000002
 20      -0.001454440825
 21       0.000000000098
 22       0.000000000069
 23      -0.002679162024
 24      -0.000000000012
 25      -0.002432458739
 26       0.000000000010
 27      -0.000000000007
 28      -0.006182233459
 29       0.000000000002
 30       0.000000000031
 31      -0.000000000006
 32       0.079009544539
 33       0.636928261779
 34      -0.543390246084
 35       0.000000000007
 36      -0.002846413458
 37       0.020933406965
 38       0.079009544542
 39       0.636928261807
 40      -0.543390245420
 41      -0.000000000016
 42       0.002846413353
 43       0.020933406867
 Sym=     1a
 Ene= 5.35748320581008E-01
 Spin= Alpha
 Occup= 0.000000
  1      -0.000000000450
  2      -0.000000000916
  3       0.000000000857
  4      -0.000000019280
  5       0.000000042022
  6       0.000000000155
  7      -0.352190440327
  8       0.000000000527
  9       0.000000000207
 10      -0.722947408754
 11      -0.000000000448
 12      -0.000000000413
 13       2.081323510637
 14      -0.000000010766
 15      -0.000000000034
 16      -0.000000000001
 17       0.011266114092
 18       0.000000000147
 19       0.000000000006
 20       0.000000000245
 21      -0.000000000011
 22      -0.060201840852
 23      -0.000000000498
 24      -0.000000000016
 25       0.000000000054
 26       0.000000000000
 27       0.002501981858
 28       0.000000000110
 29       0.000000000007
 30       0.000000000002
 31       0.000739150792
 32       0.062386147072
 33       0.039710500165
 34      -1.648655431513
 35       0.000000000012
 36       0.031711727986
 37      -0.028380409810
 38      -0.062386146557
 39      -0.039710517169
 40       1.648655415352
 41      -0.000000000064
 42       0.031711726796
 43       0.028380408671
 Sym=     1a
 Ene= 5.67214595168881E-01
 Spin= Alpha
 Occup= 0.000000
  1       0.051723510079
  2       0.106994657760
  3      -0.079827273239
  4       2.198272735632
  5      -4.856338460513
  6       0.000000000118
  7      -0.000000003068
  8      -0.069626116315
  9       0.000000000270
 10      -0.000000005698
 11       0.023252769826
 12      -0.000000000445
 13       0.000000018148
 14       1.285872317355
 15       0.003781080848
 16      -0.000000000002
 17       0.000000000105
 18      -0.017064641852
 19      -0.000000000004
 20      -0.028637197984
 21      -0.000000000010
 22      -0.000000000568
 23       0.042604192037
 24       0.000000000013
 25      -0.005653025714
 26      -0.000000000001
 27       0.000000000038
 28      -0.010894362860
 29      -0.000000000002
 30       0.000000000001
 31       0.000000000008
 32      -0.019591034923
 33       0.962131763094
 34       0.965478576298
 35      -0.000000000042
 36      -0.056210687256
 37       0.068760574065
 38      -0.019591035931
 39       0.962131763528
 40       0.965478604668
 41       0.000000000055
 42       0.056210688029
 43       0.068760574547
 Sym=     1a
 Ene= 1.09998888004694E+00
 Spin= Alpha
 Occup= 0.000000
  1      -0.003691330841
  2      -0.009585150461
  3      -0.040323370610
  4      -0.067553454068
  5       0.930384871178
  6      -0.000000000019
  7       0.000000000072
  8      -0.082195332978
  9      -0.000000000019
 10       0.000000000065
 11      -0.159196334144
 12       0.000000000039
 13      -0.000000000230
 14      -0.585051910311
 15      -0.011628549056
 16      -0.000000000000
 17       0.000000000001
 18      -0.006646537907
 19       0.000000000004
 20      -0.498217828162
 21       0.000000000004
 22      -0.000000000055
 23      -0.144182106403
 24       0.000000000146
 25       0.004160000243
 26       0.000000000000
 27       0.000000000000
 28       0.008140246190
 29       0.000000000004
 30      -0.000000000001
 31       0.000000000004
 32       0.037848461200
 33      -0.597503552441
 34      -0.052114249142
 35       0.000000000137
 36       0.307673655156
 37       0.299065980067
 38       0.037848461202
 39      -0.597503552332
 40      -0.052114249646
 41      -0.000000000121
 42      -0.307673655165
 43       0.299065980146
 Sym=     1a
 Ene= 1.13135012102367E+00
 Spin= Alpha
 Occup= 0.000000
  1      -0.000000000004
  2      -0.000000000011
  3      -0.000000000033
  4      -0.000000000091
  5       0.000000000426
  6      -0.000000000003
  7      -0.000000000022
  8      -0.000000000018
  9       0.000000000001
 10       0.000000000028
 11      -0.000000000029
 12       0.000000000002
 13       0.000000000077
 14      -0.000000000220
 15      -0.000000000003
 16       0.000000000000
 17       0.000000000001
 18      -0.000000000000
 19      -0.009508452207
 20      -0.000000000156
 21       0.000000000000
 22      -0.000000000029
 23      -0.000000000017
 24      -0.547668784167
 25       0.000000000001
 26       0.000000000000
 27       0.000000000002
 28      -0.000000000000
 29      -0.008926518671
 30      -0.000000000000
 31       0.000000000001
 32       0.000000000009
 33      -0.000000000226
 34      -0.000000000117
 35      -0.420365663183
 36       0.000000000095
 37       0.000000000076
 38      -0.000000000011
 39      -0.000000000119
 40      -0.000000000003
 41       0.420365663186
 42      -0.000000000058
 43       0.000000000099
 Sym=     1a
 Ene= 1.23311360737342E+00
 Spin= Alpha
 Occup= 0.000000
  1      -0.000000000001
  2      -0.000000000002
  3       0.000000000001
  4      -0.000000000025
  5       0.000000000170
  6      -0.101655769484
  7      -0.000000000009
  8       0.000000000014
  9      -0.046693712903
 10      -0.000000000034
 11      -0.000000000029
 12      -0.216606218359
 13       0.000000000014
 14      -0.000000000050
 15      -0.000000000001
 16      -0.002732901002
 17      -0.000000000001
 18      -0.000000000000
 19       0.000000000000
 20       0.000000000013
 21      -0.672845493618
 22       0.000000000030
 23      -0.000000000037
 24      -0.000000000003
 25       0.000000000001
 26       0.008154157690
 27      -0.000000000001
 28       0.000000000004
 29      -0.000000000001
 30      -0.011014922917
 31      -0.000000000001
 32       0.000000000026
 33      -0.000000000043
 34      -0.000000000073
 35       0.378620852182
 36       0.000000000008
 37       0.000000000006
 38       0.000000000031
 39      -0.000000000142
 40       0.000000000022
 41       0.378620852176
 42      -0.000000000020
 43      -0.000000000032
 Sym=     1a
 Ene= 1.46811933742507E+00
 Spin= Alpha
 Occup= 0.000000
  1      -0.000000000008
  2      -0.000000000034
  3      -0.000000000371
  4       0.000000000972
  5       0.000000001200
  6       0.000000000012
  7      -0.116422832556
  8       0.000000000129
  9      -0.000000000014
 10       0.932490402112
 11      -0.000000000611
 12      -0.000000000017
 13       0.936672796840
 14      -0.000000000610
 15      -0.000000000005
 16       0.000000000001
 17       0.007702576573
 18       0.000000000003
 19      -0.000000000002
 20       0.000000000224
 21       0.000000000003
 22      -1.217452706786
 23      -0.000000000797
 24       0.000000000052
 25       0.000000000028
 26      -0.000000000003
 27       0.053540961018
 28       0.000000000072
 29       0.000000000004
 30      -0.000000000002
 31       0.041825313069
 32       0.369916827691
 33      -2.203870058754
 34       0.543123138827
 35      -0.000000000001
 36       0.179759440684
 37      -0.419224760292
 38      -0.369916827105
 39       2.203870055395
 40      -0.543123138471
 41       0.000000000048
 42       0.179759440122
 43       0.419224759816
 Sym=     1a
 Ene= 1.57656076181690E+00
 Spin= Alpha
 Occup= 0.000000
  1       0.015486470321
  2       0.051307727136
  3       0.391127247400
  4      -0.702413340396
  5      -1.885591770782
  6       0.000000000108
  7      -0.000000000233
  8      -0.099931623440
  9      -0.000000000032
 10       0.000000000495
 11       0.527653759347
 12      -0.000000000039
 13       0.000000000724
 14       0.967959928086
 15       0.003481035452
 16       0.000000000001
 17      -0.000000000001
 18      -0.001659274069
 19       0.000000000002
 20      -0.326220046062
 21      -0.000000000120
 22      -0.000000000787
 23       1.107601599339
 24       0.000000000037
 25      -0.019906465482
 26       0.000000000002
 27       0.000000000032
 28      -0.063110800880
 29      -0.000000000001
 30       0.000000000003
 31       0.000000000012
 32      -0.341358091631
 33       2.100867454658
 34      -0.190270627918
 35      -0.000000000072
 36      -0.223860809346
 37       0.144875886030
 38      -0.341358092226
 39       2.100867457493
 40      -0.190270628452
 41      -0.000000000056
 42       0.223860809557
 43       0.144875886086
 Sym=     1a
 Ene= 1.69324764511715E+00
 Spin= Alpha
 Occup= 0.000000
  1      -0.000000000017
  2      -0.000000000056
  3      -0.000000000326
  4       0.000000000353
  5       0.000000000728
  6      -0.000000000038
  7      -0.165987472267
  8       0.000000000061
  9       0.000000000027
 10       0.252041047616
 11      -0.000000000186
 12      -0.000000000011
 13      -0.392690391231
 14      -0.000000000338
 15       0.000000000001
 16      -0.000000000000
 17       0.010204042900
 18       0.000000000004
 19       0.000000000000
 20       0.000000000023
 21       0.000000000042
 22      -0.427936775145
 23      -0.000000000288
 24       0.000000000040
 25       0.000000000008
 26      -0.000000000001
 27       0.021465985573
 28       0.000000000019
 29       0.000000000000
 30      -0.000000000000
 31       0.011658644455
 32       0.106461683949
 33      -0.395937366806
 34       0.354820337856
 35       0.000000000004
 36       0.557287925590
 37       0.545456649616
 38      -0.106461683750
 39       0.395937365481
 40      -0.354820337873
 41       0.000000000047
 42       0.557287925473
 43      -0.545456649736
 Sym=     1a
 Ene= 1.91476399115672E+00
 Spin= Alpha
 Occup= 0.000000
  1      -0.014517844834
  2      -0.061978875903
  3      -0.797814070329
  4       2.566884802947
  5      -0.099343549384
  6      -0.000000000304
  7      -0.000000000001
  8       0.418276308755
  9       0.000000000213
 10       0.000000000519
 11      -1.363863261690
 12      -0.000000000267
 13      -0.000000000169
 14       0.043659129961
 15      -0.001622398321
 16      -0.000000000003
 17       0.000000000016
 18       0.003483218948
 19      -0.000000000007
 20      -0.219412323764
 21       0.000000000509
 22      -0.000000000008
 23       0.019062003657
 24       0.000000000201
 25       0.071225604438
 26      -0.000000000008
 27       0.000000000026
 28       0.140706360423
 29       0.000000000006
 30       0.000000000005
 31       0.000000000027
 32       0.657417864039
 33      -1.936566429736
 34       0.505227052023
 35       0.000000000271
 36       0.569072464590
 37      -0.583635165893
 38       0.657417864007
 39      -1.936566429157
 40       0.505227051824
 41       0.000000000554
 42      -0.569072464023
 43      -0.583635165412
 Sym=     1a
 Ene= 1.99275800294737E+00
 Spin= Alpha
 Occup= 0.000000
  1       0.000000000010
  2       0.000000000040
  3       0.000000000471
  4      -0.000000001460
  5      -0.000000000078
  6      -0.338917868802
  7      -0.000000000074
  8      -0.000000000275
  9       0.185260347193
 10       0.000000000177
 11       0.000000000811
 12      -0.496837317957
 13       0.000000000012
 14       0.000000000045
 15      -0.000000000001
 16      -0.006963524415
 17       0.000000000001
 18       0.000000000000
 19       0.000000000002
 20       0.000000000146
 21       0.881269027274
 22       0.000000000030
 23       0.000000000096
 24      -0.000000000167
 25      -0.000000000040
 26      -0.008549832405
 27       0.000000000006
 28      -0.000000000085
 29       0.000000000001
 30       0.013822591693
 31       0.000000000005
 32      -0.000000000413
 33       0.000000001239
 34      -0.000000000390
 35       0.753758064296
 36      -0.000000000258
 37       0.000000000266
 38      -0.000000000467
 39       0.000000001417
 40      -0.000000000326
 41       0.753758064055
 42       0.000000000314
 43       0.000000000417
 Sym=     1a
 Ene= 2.03101965915508E+00
 Spin= Alpha
 Occup= 0.000000
  1       0.000000000004
  2       0.000000000008
  3      -0.000000000049
  4       0.000000000426
  5      -0.000000000108
  6       0.000000000046
  7       0.000000000087
  8       0.000000000052
  9      -0.000000000022
 10      -0.000000000303
 11      -0.000000000249
 12       0.000000000080
 13       0.000000000054
 14       0.000000000051
 15      -0.000000000002
 16       0.000000000001
 17      -0.000000000006
 18      -0.000000000001
 19       0.010870572048
 20      -0.000000000020
 21      -0.000000000137
 22      -0.000000000040
 23       0.000000000030
 24      -1.073500976248
 25       0.000000000016
 26       0.000000000001
 27      -0.000000000010
 28       0.000000000029
 29      -0.005372143411
 30      -0.000000000004
 31      -0.000000000013
 32       0.000000000069
 33      -0.000000000155
 34       0.000000000099
 35       0.761214908689
 36       0.000000000030
 37       0.000000000005
 38       0.000000000176
 39      -0.000000000498
 40       0.000000000136
 41      -0.761214908930
 42      -0.000000000222
 43      -0.000000000222
 Sym=     1a
 Ene= 2.21738982823926E+00
 Spin= Alpha
 Occup= 0.000000
  1       0.000000000016
  2       0.000000000051
  3       0.000000000192
  4       0.000000000248
  5       0.000000000080
  6      -0.000000000009
  7       0.447175449063
  8       0.000000000060
  9      -0.000000000013
 10      -2.153736299597
 11      -0.000000000347
 12      -0.000000000035
 13       0.434743925870
 14      -0.000000000065
 15       0.000000000001
 16      -0.000000000002
 17      -0.039289661466
 18      -0.000000000004
 19       0.000000000002
 20       0.000000000166
 21       0.000000000081
 22       0.111500929915
 23       0.000000000079
 24       0.000000000160
 25       0.000000000023
 26       0.000000000004
 27      -0.093956638439
 28       0.000000000044
 29       0.000000000002
 30       0.000000000002
 31      -0.095527617641
 32      -0.502459404623
 33       1.880239026622
 34      -0.826907094607
 35      -0.000000000052
 36      -0.797314785183
 37       0.709995176353
 38       0.502459405142
 39      -1.880239027903
 40       0.826907095045
 41       0.000000000194
 42      -0.797314785677
 43      -0.709995176410
 Sym=     1a
 Ene= 2.29649929207370E+00
 Spin= Alpha
 Occup= 0.000000
  1       0.015444136348
  2       0.056790175721
  3       0.517672790792
  4      -1.161571126842
  5      -0.624832332144
  6       0.000000000051
  7      -0.000000000088
  8       0.491188932114
  9      -0.000000000068
 10      -0.000000000337
 11      -0.031545304467
 12      -0.000000000016
 13      -0.000000000006
 14       0.863735051801
 15      -0.005694092179
 16       0.000000000001
 17      -0.000000000014
 18      -0.000034556410
 19      -0.000000000002
 20      -0.975016142225
 21       0.000000000054
 22       0.000000000139
 23      -0.319938761383
 24      -0.000000000020
 25      -0.038396753773
 26       0.000000000000
 27      -0.000000000024
 28      -0.058218296171
 29      -0.000000000004
 30       0.000000000003
 31      -0.000000000026
 32      -0.203792921611
 33       0.988601895865
 34      -0.015477614413
 35       0.000000000072
 36      -0.782013558558
 37      -0.327510190899
 38      -0.203792921475
 39       0.988601894960
 40      -0.015477614125
 41       0.000000000034
 42       0.782013558028
 43      -0.327510191254
 Sym=     1a
 Ene= 2.49664994803021E+00
 Spin= Alpha
 Occup= 0.000000
  1      -0.000000000171
  2      -0.000000000511
  3      -0.000000001946
  4      -0.000000000584
  5      -0.000000004632
  6      -0.000000001025
  7      -0.930793152581
  8       0.000000001847
  9       0.000000001488
 10      -0.066427763118
 11       0.000000000053
 12      -0.000000000476
 13      -1.071371956187
 14       0.000000001603
 15       0.000000000007
 16       0.000000000004
 17      -0.038356680764
 18      -0.000000000063