water-pople                                                             
Stability RPBE1PBE                                                    6-311G(d,p)         
Number of atoms                            I                3
Info1-9                                    I   N=           9
          17          15           0           0           0         110
           7          18       -1302
Full Title                                 C   N=           1
water-pople 
Route                                      C   N=          10
#P Stable=Opt # 6-311G** PBE1PBE # SCF=(XQC,MaxConventionalC
ycles=60,IntRep) # Integral=(Grid=UltraFine,Acc2E=12)       
Charge                                     I                0
Multiplicity                               I                1
Number of electrons                        I               10
Number of alpha electrons                  I                5
Number of beta electrons                   I                5
Number of basis functions                  I               30
Number of independent functions            I               30
Number of point charges in /Mol/           I                0
Number of translation vectors              I                0
Atomic numbers                             I   N=           3
           8           1           1
Nuclear charges                            R   N=           3
  8.00000000E+00  1.00000000E+00  1.00000000E+00
Current cartesian coordinates              R   N=           9
  1.36995476E-17  1.36995476E-17  2.23730591E-01  2.07919203E-16  1.43016688E+00
 -8.94922363E-01 -4.92660513E-16 -1.43016688E+00 -8.94922363E-01
Number of symbols in /Mol/                 I                0
Int Atom Types                             I   N=           3
           0           0           0
Force Field                                I                0
Atom Types                                 C   N=           3
                                    
MM charges                                 R   N=           3
  0.00000000E+00  0.00000000E+00  0.00000000E+00
Integer atomic weights                     I   N=           3
          16           1           1
Real atomic weights                        R   N=           3
  1.59949146E+01  1.00782504E+00  1.00782504E+00
Atom fragment info                         I   N=           3
           0           0           0
Atom residue num                           I   N=           3
           0           0           0
Nuclear spins                              I   N=           3
           0           1           1
Nuclear ZEff                               R   N=           3
 -5.60000000E+00 -1.00000000E+00 -1.00000000E+00
Nuclear ZNuc                               R   N=           3
  8.00000000E+00  1.00000000E+00  1.00000000E+00
Nuclear QMom                               R   N=           3
  0.00000000E+00  0.00000000E+00  0.00000000E+00
Nuclear GFac                               R   N=           3
  0.00000000E+00  2.79284600E+00  2.79284600E+00
MicOpt                                     I   N=           3
          -1          -1          -1
Number of residues                         I                0
Number of secondary structures             I                0
SymInf integers                            I   N=          26
           2           4           1           1           1          -1
          -1           1          -1           1           1           1
          -1           1           0           0           0           0
           0           0           0           0           0           0
           0           0
RotTr to input orientation                 R   N=          12
  1.00000000E+00 -1.83697020E-16 -6.12323400E-17  1.83697020E-16  1.00000000E+00
 -6.12323400E-17  6.12323400E-17  6.12323400E-17  1.00000000E+00  0.00000000E+00
  0.00000000E+00  0.00000000E+00
Number of contracted shells                I               13
Number of primitive shells                 I               24
Pure/Cartesian d shells                    I                0
Pure/Cartesian f shells                    I                0
Highest angular momentum                   I                2
Largest degree of contraction              I                6
Shell types                                I   N=          13
           0          -1          -1          -1          -2           0
           0           0           1           0           0           0
           1
Number of primitives per shell             I   N=          13
           6           3           1           1           1           3
           1           1           1           3           1           1
           1
Shell to atom map                          I   N=          13
           1           1           1           1           1           2
           2           2           2           3           3           3
           3
Primitive exponents                        R   N=          24
  8.58850000E+03  1.29723000E+03  2.99296000E+02  8.73771000E+01  2.56789000E+01
  3.74004000E+00  4.21175000E+01  9.62837000E+00  2.85332000E+00  9.05661000E-01
  2.55611000E-01  1.29200000E+00  3.38650000E+01  5.09479000E+00  1.15879000E+00
  3.25840000E-01  1.02741000E-01  7.50000000E-01  3.38650000E+01  5.09479000E+00
  1.15879000E+00  3.25840000E-01  1.02741000E-01  7.50000000E-01
Contraction coefficients                   R   N=          24
  1.89515008E-03  1.43859006E-02  7.07320031E-02  2.40001011E-01  5.94797026E-01
  2.80802012E-01  1.13889012E-01  9.20811101E-01 -3.27447036E-03  1.00000000E+00
  1.00000000E+00  1.00000000E+00  2.54938145E-02  1.90373109E-01  8.52161486E-01
  1.00000000E+00  1.00000000E+00  1.00000000E+00  2.54938145E-02  1.90373109E-01
  8.52161486E-01  1.00000000E+00  1.00000000E+00  1.00000000E+00
P(S=P) Contraction coefficients            R   N=          24
  0.00000000E+00  0.00000000E+00  0.00000000E+00  0.00000000E+00  0.00000000E+00
  0.00000000E+00  3.65113974E-02  2.37152983E-01  8.19701941E-01  1.00000000E+00
  1.00000000E+00  0.00000000E+00  0.00000000E+00  0.00000000E+00  0.00000000E+00
  0.00000000E+00  0.00000000E+00  0.00000000E+00  0.00000000E+00  0.00000000E+00
  0.00000000E+00  0.00000000E+00  0.00000000E+00  0.00000000E+00
Coordinates of each shell                  R   N=          39
  6.89423111E-34 -1.37884622E-33  2.23730591E-01  6.89423111E-34 -1.37884622E-33
  2.23730591E-01  6.89423111E-34 -1.37884622E-33  2.23730591E-01  6.89423111E-34
 -1.37884622E-33  2.23730591E-01  6.89423111E-34 -1.37884622E-33  2.23730591E-01
  0.00000000E+00  1.43016688E+00 -8.94922363E-01  0.00000000E+00  1.43016688E+00
 -8.94922363E-01  0.00000000E+00  1.43016688E+00 -8.94922363E-01  0.00000000E+00
  1.43016688E+00 -8.94922363E-01 -1.75144929E-16 -1.43016688E+00 -8.94922363E-01
 -1.75144929E-16 -1.43016688E+00 -8.94922363E-01 -1.75144929E-16 -1.43016688E+00
 -8.94922363E-01 -1.75144929E-16 -1.43016688E+00 -8.94922363E-01
Num ILSW                                   I              100
ILSW                                       I   N=         100
           0           0           0           0           2           1
           0           0           0           0        1009          -1
           5           0           0           0           0           0
           0           0           0           0           0           0
           1           0           0           0           0           0
           0           0      100000           0          -1           0
           0           0           0           0           0           0
           0           0           0           1           0           0
           0 -2000000000           1           0           0           0
           0           0           4          52           0           0
           0           0          13           0           0           0
           0           0           0           3           0           1
           0           0           0           0           0           0
           0           0           0           0           0           0
           0           0           0           0           0           0
           0           0           0           0           0           0
           0           0           0           0
Num RLSW                                   I               52
RLSW                                       R   N=          52
  7.50000000E-01  7.50000000E-01  1.00000000E+00  1.00000000E+00  2.50000000E-01
  0.00000000E+00  0.00000000E+00  1.00000000E+00  0.00000000E+00  0.00000000E+00
  0.00000000E+00  0.00000000E+00  1.00000000E+00  0.00000000E+00  0.00000000E+00
  0.00000000E+00  0.00000000E+00  1.00000000E+00  0.00000000E+00  0.00000000E+00
  0.00000000E+00  0.00000000E+00  1.00000000E+00  0.00000000E+00  0.00000000E+00
  0.00000000E+00  0.00000000E+00  1.00000000E+00  0.00000000E+00  0.00000000E+00
  0.00000000E+00  0.00000000E+00  1.00000000E+00  0.00000000E+00  0.00000000E+00
  0.00000000E+00  0.00000000E+00  0.00000000E+00  1.00000000E+00  1.00000000E+00
  0.00000000E+00  1.00000000E+00  0.00000000E+00  0.00000000E+00  0.00000000E+00
  0.00000000E+00  0.00000000E+00  0.00000000E+00  0.00000000E+00  0.00000000E+00
  0.00000000E+00  0.00000000E+00
MxBond                                     I                2
NBond                                      I   N=           3
           2           1           1
IBond                                      I   N=           6
           2           3           1           0           1           0
RBond                                      R   N=           6
  1.00000000E+00  1.00000000E+00  1.00000000E+00  0.00000000E+00  1.00000000E+00
  0.00000000E+00
Virial Ratio                               R      2.001519273160442E+00
SCF Energy                                 R     -7.636242418095745E+01
Total Energy                               R     -7.636242418095745E+01
RMS Density                                R      4.248093697511600E-09
Job Status                                 I                1
Nuclear derivative order                   I                0
External E-field                           R   N=          35
  0.00000000E+00  0.00000000E+00  0.00000000E+00  0.00000000E+00  0.00000000E+00
  0.00000000E+00  0.00000000E+00  0.00000000E+00  0.00000000E+00  0.00000000E+00
  0.00000000E+00  0.00000000E+00  0.00000000E+00  0.00000000E+00  0.00000000E+00
  0.00000000E+00  0.00000000E+00  0.00000000E+00  0.00000000E+00  0.00000000E+00
  0.00000000E+00  0.00000000E+00  0.00000000E+00  0.00000000E+00  0.00000000E+00
  0.00000000E+00  0.00000000E+00  0.00000000E+00  0.00000000E+00  0.00000000E+00
  0.00000000E+00  0.00000000E+00  0.00000000E+00  0.00000000E+00  0.00000000E+00
IOpCl                                      I                0
IROHF                                      I                0
Alpha Orbital Energies                     R   N=          30
 -1.91797807E+01 -1.02789493E+00 -5.34121893E-01 -3.89350426E-01 -3.11452042E-01
  4.67509053E-02  1.21666032E-01  3.95125488E-01  4.41170673E-01  7.81757992E-01
  7.86875307E-01  8.84929274E-01  1.08464378E+00  1.25379793E+00  1.27925843E+00
  1.47241464E+00  1.67431387E+00  1.94858872E+00  2.08187178E+00  2.31015081E+00
  2.50224780E+00  3.12986523E+00  3.17326385E+00  3.33878842E+00  3.61521449E+00
  3.85171984E+00  4.81557125E+00  5.23610075E+00  5.65794604E+00  4.99835602E+01
Alpha MO coefficients                      R   N=         900
  5.51669736E-01  4.69740340E-01  0.00000000E+00  0.00000000E+00 -1.35456587E-03
  1.15692857E-02  0.00000000E+00  0.00000000E+00 -5.01027303E-04 -2.73924204E-03
  0.00000000E+00  0.00000000E+00 -1.29320944E-04  4.27466770E-05  0.00000000E+00
  0.00000000E+00 -3.88210280E-04  0.00000000E+00 -5.09324521E-05 -8.07317063E-04
  6.38869226E-04  0.00000000E+00  8.07904900E-04 -6.58212287E-04 -5.09324521E-05
 -8.07317063E-04  6.38869226E-04  0.00000000E+00 -8.07904900E-04 -6.58212287E-04
 -1.15157189E-01 -1.85468863E-01  0.00000000E+00  0.00000000E+00 -5.24761556E-02
  5.35454860E-01  0.00000000E+00  0.00000000E+00 -8.08811843E-02  3.59215239E-01
  0.00000000E+00  0.00000000E+00 -2.91790363E-02  3.94067365E-03  0.00000000E+00
  0.00000000E+00 -8.87185916E-03  0.00000000E+00  9.86498443E-02  8.50451555E-02
  1.07771534E-03  0.00000000E+00 -2.37175022E-02  1.35965125E-02  9.86498443E-02
  8.50451555E-02  1.07771534E-03  0.00000000E+00  2.37175022E-02  1.35965125E-02
  0.00000000E+00  0.00000000E+00  0.00000000E+00  2.36456328E-01  0.00000000E+00
  0.00000000E+00  0.00000000E+00  3.45193383E-01  0.00000000E+00  0.00000000E+00
  0.00000000E+00  2.09367749E-01  0.00000000E+00  0.00000000E+00  0.00000000E+00
 -2.45710876E-02  0.00000000E+00  0.00000000E+00  1.53239231E-01  2.07034462E-01
  7.28015098E-02  0.00000000E+00 -1.45521964E-02  2.40424051E-02 -1.53239231E-01
 -2.07034462E-01 -7.28015098E-02  0.00000000E+00 -1.45521964E-02 -2.40424051E-02
 -4.44697270E-02 -7.28640731E-02  0.00000000E+00  0.00000000E+00  2.59339403E-01
  2.15916079E-01  0.00000000E+00  0.00000000E+00  3.63684018E-01  3.60251113E-01
  0.00000000E+00  0.00000000E+00  3.33989130E-01 -1.74375067E-02  0.00000000E+00
  0.00000000E+00  1.44719185E-03  0.00000000E+00 -8.78608188E-02 -1.45747392E-01
 -3.72924373E-02  0.00000000E+00  2.76146056E-02  1.32518022E-02 -8.78608188E-02
 -1.45747392E-01 -3.72924373E-02  0.00000000E+00 -2.76146056E-02  1.32518022E-02
  0.00000000E+00  0.00000000E+00  2.99534366E-01  0.00000000E+00  0.00000000E+00
  0.00000000E+00  4.25769138E-01  0.00000000E+00  0.00000000E+00  0.00000000E+00
  4.71405028E-01  0.00000000E+00  0.00000000E+00  0.00000000E+00 -1.80338034E-02
  0.00000000E+00  0.00000000E+00  0.00000000E+00  0.00000000E+00  0.00000000E+00
  0.00000000E+00  3.32066308E-02  0.00000000E+00  0.00000000E+00  0.00000000E+00
  0.00000000E+00  0.00000000E+00  3.32066308E-02  0.00000000E+00  0.00000000E+00
 -4.06279509E-02 -6.56756256E-02  0.00000000E+00  0.00000000E+00 -1.00928259E-01
  1.69342290E-01  0.00000000E+00  0.00000000E+00 -1.55956938E-01  8.16362865E-01
  0.00000000E+00  0.00000000E+00 -2.40076236E-01  6.53927416E-03  0.00000000E+00
  0.00000000E+00 -5.21851592E-04  0.00000000E+00 -4.47407053E-02 -5.09122349E-02
 -7.58395954E-01  0.00000000E+00 -1.52150076E-02  3.65300380E-03 -4.47407053E-02
 -5.09122349E-02 -7.58395954E-01  0.00000000E+00  1.52150076E-02  3.65300380E-03
  0.00000000E+00  0.00000000E+00  0.00000000E+00 -1.61974806E-01  0.00000000E+00
  0.00000000E+00  0.00000000E+00 -2.00315011E-01  0.00000000E+00  0.00000000E+00
  0.00000000E+00 -5.30236156E-01  0.00000000E+00  0.00000000E+00  0.00000000E+00
  1.14701014E-03  0.00000000E+00  0.00000000E+00  3.92761772E-02  4.11934042E-02
  1.39184386E+00  0.00000000E+00  1.54403916E-02 -1.63544790E-02 -3.92761772E-02
 -4.11934042E-02 -1.39184386E+00  0.00000000E+00  1.54403916E-02  1.63544790E-02
  0.00000000E+00  0.00000000E+00  0.00000000E+00 -1.24045469E-01  0.00000000E+00
  0.00000000E+00  0.00000000E+00 -1.97350918E-01  0.00000000E+00  0.00000000E+00
  0.00000000E+00 -9.14680552E-01  0.00000000E+00  0.00000000E+00  0.00000000E+00
 -2.17414792E-02  0.00000000E+00  0.00000000E+00  1.15402058E-01  1.36264275E+00
 -9.66575093E-01  0.00000000E+00 -2.47177602E-02 -1.01190046E-02 -1.15402058E-01
 -1.36264275E+00  9.66575093E-01  0.00000000E+00 -2.47177602E-02  1.01190046E-02
  3.25257007E-02  5.52856769E-02  0.00000000E+00  0.00000000E+00  1.17578656E-01
 -1.50395188E-01  0.00000000E+00  0.00000000E+00  2.17499143E-01 -1.10886786E+00
  0.00000000E+00  0.00000000E+00  8.86414686E-01 -1.05361097E-02  0.00000000E+00
  0.00000000E+00 -1.63585313E-02  0.00000000E+00  1.00192123E-01  1.66412142E+00
 -6.92358196E-01  0.00000000E+00 -1.56983526E-02  3.78466505E-02  1.00192123E-01
  1.66412142E+00 -6.92358196E-01  0.00000000E+00  1.56983526E-02  3.78466505E-02
  1.82619800E-02  3.21935025E-02  0.00000000E+00  0.00000000E+00 -2.49251185E-01
 -7.10630248E-02  0.00000000E+00  0.00000000E+00 -7.08695282E-01 -9.59950240E-01
  0.00000000E+00  0.00000000E+00  1.59096724E+00  2.34796057E-03  0.00000000E+00
  0.00000000E+00  1.05775430E-02  0.00000000E+00  2.63020721E-02  6.62360209E-01
  8.17612739E-02  0.00000000E+00 -1.17370875E-01  1.20046730E-01  2.63020721E-02
  6.62360209E-01  8.17612739E-02  0.00000000E+00  1.17370875E-01  1.20046730E-01
  0.00000000E+00  0.00000000E+00 -2.64519630E-01  0.00000000E+00  0.00000000E+00
  0.00000000E+00 -8.14636101E-01  0.00000000E+00  0.00000000E+00  0.00000000E+00
  1.12531969E+00  0.00000000E+00  0.00000000E+00  0.00000000E+00  8.02204116E-03
  0.00000000E+00  0.00000000E+00  0.00000000E+00  0.00000000E+00  0.00000000E+00
  0.00000000E+00 -4.47305838E-04  0.00000000E+00  0.00000000E+00  0.00000000E+00
  0.00000000E+00  0.00000000E+00 -4.47305838E-04  0.00000000E+00  0.00000000E+00
  0.00000000E+00  0.00000000E+00  0.00000000E+00 -2.52506287E-01  0.00000000E+00
  0.00000000E+00  0.00000000E+00 -6.91085543E-01  0.00000000E+00  0.00000000E+00
  0.00000000E+00  1.84155013E+00  0.00000000E+00  0.00000000E+00  0.00000000E+00
 -2.12360491E-02  0.00000000E+00  0.00000000E+00  5.48797681E-03 -4.19617170E-01
 -7.99070242E-01  0.00000000E+00  1.57826964E-01 -1.16550323E-01 -5.48797681E-03
  4.19617170E-01  7.99070242E-01  0.00000000E+00  1.57826964E-01  1.16550323E-01
  1.03938035E-01  2.04267031E-01  0.00000000E+00  0.00000000E+00  2.43688952E-02
 -1.52349811E+00  0.00000000E+00  0.00000000E+00 -1.48207691E-01  3.09433801E+00
  0.00000000E+00  0.00000000E+00 -5.82588682E-01  3.38139648E-02  0.00000000E+00
  0.00000000E+00 -6.74087797E-03  0.00000000E+00  2.24249243E-02 -8.52265517E-01
 -3.54490702E-01  0.00000000E+00  1.29011894E-01 -3.47984523E-01  2.24249243E-02
 -8.52265517E-01 -3.54490702E-01  0.00000000E+00 -1.29011894E-01 -3.47984523E-01
  3.54793582E-02  7.09732398E-02  0.00000000E+00  0.00000000E+00 -8.43718844E-03
 -6.19563648E-01  0.00000000E+00  0.00000000E+00 -6.48826032E-02  2.03454504E+00
  0.00000000E+00  0.00000000E+00 -1.29167988E+00 -1.29315457E-01  0.00000000E+00
  0.00000000E+00 -5.65603950E-02  0.00000000E+00  7.93196802E-02 -1.18778441E+00
  2.81880355E-02  0.00000000E+00  5.85665983E-01  4.12858100E-01  7.93196802E-02
 -1.18778441E+00  2.81880355E-02  0.00000000E+00 -5.85665983E-01  4.12858100E-01
  0.00000000E+00  0.00000000E+00  0.00000000E+00  0.00000000E+00  0.00000000E+00
  0.00000000E+00  0.00000000E+00  0.00000000E+00  0.00000000E+00  0.00000000E+00
  0.00000000E+00  0.00000000E+00  0.00000000E+00  0.00000000E+00  0.00000000E+00
  0.00000000E+00  0.00000000E+00  1.33083556E-01  0.00000000E+00  0.00000000E+00
  0.00000000E+00  6.86585727E-01  0.00000000E+00  0.00000000E+00  0.00000000E+00
  0.00000000E+00  0.00000000E+00 -6.86585727E-01  0.00000000E+00  0.00000000E+00
  0.00000000E+00  0.00000000E+00 -4.60980967E-02  0.00000000E+00  0.00000000E+00
  0.00000000E+00 -2.65755094E-02  0.00000000E+00  0.00000000E+00  0.00000000E+00
 -5.83144126E-01  0.00000000E+00  0.00000000E+00  0.00000000E+00 -1.56525512E-01
  0.00000000E+00  0.00000000E+00  0.00000000E+00  0.00000000E+00  0.00000000E+00
  0.00000000E+00  7.63115755E-01  0.00000000E+00  0.00000000E+00  0.00000000E+00
  0.00000000E+00  0.00000000E+00  7.63115755E-01  0.00000000E+00  0.00000000E+00
  0.00000000E+00  0.00000000E+00  0.00000000E+00 -1.41518375E-02  0.00000000E+00
  0.00000000E+00  0.00000000E+00 -3.82049408E-02  0.00000000E+00  0.00000000E+00
  0.00000000E+00  9.18589429E-01  0.00000000E+00  0.00000000E+00  0.00000000E+00
 -6.95393841E-02  0.00000000E+00  0.00000000E+00  1.77744743E-01 -7.43006799E-01
  1.67239137E-01  0.00000000E+00 -4.92051328E-01 -6.39408150E-01 -1.77744743E-01
  7.43006799E-01 -1.67239137E-01  0.00000000E+00 -4.92051328E-01  6.39408150E-01
  0.00000000E+00  0.00000000E+00  0.00000000E+00  1.71765474E-01  0.00000000E+00
  0.00000000E+00  0.00000000E+00  4.30479265E-01  0.00000000E+00  0.00000000E+00
  0.00000000E+00  5.26586823E-02  0.00000000E+00  0.00000000E+00  0.00000000E+00
  2.37293887E-01  0.00000000E+00  0.00000000E+00 -6.58833607E-01  6.78606970E-01
 -5.84458172E-01  0.00000000E+00  3.05276095E-01 -4.94749698E-01  6.58833607E-01
 -6.78606970E-01  5.84458172E-01  0.00000000E+00  3.05276095E-01  4.94749698E-01
 -3.04365364E-02 -5.50529832E-02  0.00000000E+00  0.00000000E+00 -1.67525291E-01
  2.39718694E-01  0.00000000E+00  0.00000000E+00 -2.35237245E-01 -1.99753321E-04
  0.00000000E+00  0.00000000E+00  1.69744249E-01 -8.34353034E-02  0.00000000E+00
  0.00000000E+00  2.73026593E-01  0.00000000E+00 -8.53903582E-01  1.02160215E+00
 -4.30424853E-01  0.00000000E+00  3.42506826E-01 -1.70336676E-01 -8.53903582E-01
  1.02160215E+00 -4.30424853E-01  0.00000000E+00 -3.42506826E-01 -1.70336676E-01
  5.38933423E-02  1.19418562E-01  0.00000000E+00  0.00000000E+00  2.35879272E-02
 -8.40358209E-01  0.00000000E+00  0.00000000E+00  6.37405227E-01 -1.82438771E+00
  0.00000000E+00  0.00000000E+00  7.82097214E-01  2.94262651E-02  0.00000000E+00
  0.00000000E+00 -1.72724915E-02  0.00000000E+00 -6.13635342E-01  2.05107942E+00
 -2.88316809E-01  0.00000000E+00 -8.70868536E-01  6.46933720E-01 -6.13635342E-01
  2.05107942E+00 -2.88316809E-01  0.00000000E+00  8.70868536E-01  6.46933720E-01
  0.00000000E+00  0.00000000E+00  0.00000000E+00 -2.18117908E-02  0.00000000E+00
  0.00000000E+00  0.00000000E+00 -8.40937410E-01  0.00000000E+00  0.00000000E+00
  0.00000000E+00 -6.83225489E-01  0.00000000E+00  0.00000000E+00  0.00000000E+00
  2.07193072E-01  0.00000000E+00  0.00000000E+00 -8.11277499E-01  2.09250765E+00
 -5.41005003E-01  0.00000000E+00 -8.64297163E-01  6.22803457E-01  8.11277499E-01
 -2.09250765E+00  5.41005003E-01  0.00000000E+00 -8.64297163E-01 -6.22803457E-01
  0.00000000E+00  0.00000000E+00 -1.56900776E-02  0.00000000E+00  0.00000000E+00
  0.00000000E+00  1.55764921E-02  0.00000000E+00  0.00000000E+00  0.00000000E+00
 -2.73910669E-01  0.00000000E+00  0.00000000E+00  0.00000000E+00  1.03243932E+00
  0.00000000E+00  0.00000000E+00  0.00000000E+00  0.00000000E+00  0.00000000E+00
  0.00000000E+00  3.63184643E-01  0.00000000E+00  0.00000000E+00  0.00000000E+00
  0.00000000E+00  0.00000000E+00  3.63184643E-01  0.00000000E+00  0.00000000E+00
  0.00000000E+00  0.00000000E+00  0.00000000E+00  0.00000000E+00  0.00000000E+00
  0.00000000E+00  0.00000000E+00  0.00000000E+00  0.00000000E+00  0.00000000E+00
  0.00000000E+00  0.00000000E+00  0.00000000E+00  0.00000000E+00  0.00000000E+00
  0.00000000E+00  0.00000000E+00  1.05104526E+00  0.00000000E+00  0.00000000E+00
  0.00000000E+00 -3.42314394E-01  0.00000000E+00  0.00000000E+00  0.00000000E+00
  0.00000000E+00  0.00000000E+00  3.42314394E-01  0.00000000E+00  0.00000000E+00
  3.51040525E-05  4.08767389E-04  0.00000000E+00  0.00000000E+00 -3.01684013E-02
 -6.21897758E-02  0.00000000E+00  0.00000000E+00 -1.76644928E-02  6.57427244E-01
  0.00000000E+00  0.00000000E+00 -5.91575945E-01  1.06432998E+00  0.00000000E+00
  0.00000000E+00  1.85594820E-01  0.00000000E+00 -2.77849710E-03 -4.56002589E-01
  3.23404926E-02  0.00000000E+00  3.67412601E-01  2.64843065E-01 -2.77849710E-03
 -4.56002589E-01  3.23404926E-02  0.00000000E+00 -3.67412601E-01  2.64843065E-01
 -2.20140156E-02 -4.13862894E-02  0.00000000E+00  0.00000000E+00 -3.25757256E-01
  1.03502369E-01  0.00000000E+00  0.00000000E+00 -9.10943796E-02  2.08889257E+00
  0.00000000E+00  0.00000000E+00 -1.00722318E+00  1.63821462E-01  0.00000000E+00
  0.00000000E+00 -1.10290457E+00  0.00000000E+00 -2.88692269E-01 -1.12437717E+00
 -4.62452189E-02  0.00000000E+00  5.91127791E-01 -4.69491397E-01 -2.88692269E-01
 -1.12437717E+00 -4.62452189E-02  0.00000000E+00 -5.91127791E-01 -4.69491397E-01
  0.00000000E+00  0.00000000E+00  0.00000000E+00 -4.62985604E-01  0.00000000E+00
  0.00000000E+00  0.00000000E+00  7.35017727E-02  0.00000000E+00  0.00000000E+00
  0.00000000E+00 -9.60407567E-01  0.00000000E+00  0.00000000E+00  0.00000000E+00
  1.14721281E+00  0.00000000E+00  0.00000000E+00  3.85836286E-01  5.19145552E-01
  2.41468825E-01  0.00000000E+00 -4.68460055E-01  3.62831980E-01 -3.85836286E-01
 -5.19145552E-01 -2.41468825E-01  0.00000000E+00 -4.68460055E-01 -3.62831980E-01
  0.00000000E+00  0.00000000E+00 -1.26398262E+00  0.00000000E+00  0.00000000E+00
  0.00000000E+00  1.39106083E+00  0.00000000E+00  0.00000000E+00  0.00000000E+00
 -4.98541923E-01  0.00000000E+00  0.00000000E+00  0.00000000E+00 -2.50749352E-02
  0.00000000E+00  0.00000000E+00  0.00000000E+00  0.00000000E+00  0.00000000E+00
  0.00000000E+00 -5.80605451E-02  0.00000000E+00  0.00000000E+00  0.00000000E+00
  0.00000000E+00  0.00000000E+00 -5.80605451E-02  0.00000000E+00  0.00000000E+00
  2.36298390E-02  4.28882262E-02  0.00000000E+00  0.00000000E+00 -1.24922391E+00
 -2.24376353E-01  0.00000000E+00  0.00000000E+00  1.73700545E+00 -1.06457067E+00
  0.00000000E+00  0.00000000E+00 -8.00688873E-02 -1.03865740E-01  0.00000000E+00
  0.00000000E+00  3.74891240E-01  0.00000000E+00  2.81651066E-01  5.24573400E-01
  1.35495000E-02  0.00000000E+00 -4.86884616E-01  2.86721214E-01  2.81651066E-01
  5.24573400E-01  1.35495000E-02  0.00000000E+00  4.86884616E-01  2.86721214E-01
  0.00000000E+00  0.00000000E+00  0.00000000E+00 -1.24134381E+00  0.00000000E+00
  0.00000000E+00  0.00000000E+00  2.01144003E+00  0.00000000E+00  0.00000000E+00
  0.00000000E+00 -1.47640216E-01  0.00000000E+00  0.00000000E+00  0.00000000E+00
 -6.63333543E-01  0.00000000E+00  0.00000000E+00 -3.42737949E-01 -5.07794209E-01
  1.50460934E-01  0.00000000E+00  5.34299596E-01 -4.76307832E-01  3.42737949E-01
  5.07794209E-01 -1.50460934E-01  0.00000000E+00  5.34299596E-01  4.76307832E-01
 -2.24655415E+00  2.33675354E+00  0.00000000E+00  0.00000000E+00 -1.79846305E-02
 -2.68981952E-01  0.00000000E+00  0.00000000E+00  7.01084882E-02  7.74154311E-02
  0.00000000E+00  0.00000000E+00  9.11271158E-03 -3.48703579E-03  0.00000000E+00
  0.00000000E+00  2.44538140E-02  0.00000000E+00  4.61222086E-03  6.55236772E-02
 -3.11897117E-02  0.00000000E+00 -5.80966233E-02  4.46494234E-02  4.61222086E-03
  6.55236772E-02 -3.11897117E-02  0.00000000E+00  5.80966233E-02  4.46494234E-02
Orthonormal basis                          R   N=         900
  5.44472335E-02  5.73164145E-02  0.00000000E+00  0.00000000E+00 -3.47336912E-02
  1.47305093E-01  0.00000000E+00  0.00000000E+00 -7.53782787E-02  1.89719613E-01
  0.00000000E+00  0.00000000E+00 -9.63511497E-02  6.22421368E-03  0.00000000E+00
  0.00000000E+00 -1.73020766E-02  0.00000000E+00  1.02066450E-01  1.63787258E-01
  1.66710529E-01  0.00000000E+00 -7.01720520E-02  2.07852266E-02  1.02066450E-01
  1.63787258E-01  1.66710529E-01  0.00000000E+00  7.01720520E-02  2.07852266E-02
  2.41712813E-01  2.47205197E-01  0.00000000E+00  0.00000000E+00  1.85740476E-01
  2.05664627E-01  0.00000000E+00  0.00000000E+00  2.81244613E-01  1.33623235E-01
  0.00000000E+00  0.00000000E+00  2.77918485E-01 -5.42909950E-02  0.00000000E+00
  0.00000000E+00 -1.55064534E-02  0.00000000E+00 -7.42093064E-02 -4.31564822E-02
  8.32434833E-03  0.00000000E+00  5.45844345E-02  1.36955149E-01 -7.42093064E-02
 -4.31564822E-02  8.32434833E-03  0.00000000E+00 -5.45844345E-02  1.36955149E-01
 -2.89709884E-01 -2.92238529E-01  0.00000000E+00  0.00000000E+00  2.21463776E-01
 -1.05807214E-01  0.00000000E+00  0.00000000E+00  2.60500539E-01  8.58287534E-02
  0.00000000E+00  0.00000000E+00  1.12127535E-01 -5.84593896E-02  0.00000000E+00
  0.00000000E+00 -3.09469777E-02  0.00000000E+00  6.41750337E-02  9.70670240E-02
  1.68711262E-01  0.00000000E+00  2.17704896E-01 -1.94447584E-02  6.41750337E-02
  9.70670240E-02  1.68711262E-01  0.00000000E+00 -2.17704896E-01 -1.94447584E-02
 -2.34528683E-01 -2.27089090E-01  0.00000000E+00  0.00000000E+00 -2.21087679E-01
  1.23624877E-01  0.00000000E+00  0.00000000E+00 -1.46338776E-01  9.39883625E-02
  0.00000000E+00  0.00000000E+00  1.35072268E-01 -2.66003865E-01  0.00000000E+00
  0.00000000E+00 -2.73202465E-01  0.00000000E+00 -1.92496770E-04 -4.82210938E-02
 -8.48937864E-02  0.00000000E+00 -6.52177737E-02  3.84027806E-01 -1.92496770E-04
 -4.82210938E-02 -8.48937864E-02  0.00000000E+00  6.52177737E-02  3.84027806E-01
  2.57423630E-01  2.44694575E-01  0.00000000E+00  0.00000000E+00 -9.60833002E-02
 -2.06580486E-01  0.00000000E+00  0.00000000E+00 -1.08536897E-01 -1.90042335E-01
  0.00000000E+00  0.00000000E+00 -1.79037863E-01 -3.67681311E-01  0.00000000E+00
  0.00000000E+00 -2.39608058E-01  0.00000000E+00  1.62916881E-01  6.87443628E-02
 -4.21447240E-03  0.00000000E+00  3.44850459E-01  4.43843099E-02  1.62916881E-01
  6.87443628E-02 -4.21447240E-03  0.00000000E+00 -3.44850459E-01  4.43843099E-02
 -2.29693893E-02 -2.03511155E-02  0.00000000E+00  0.00000000E+00 -2.26431419E-01
  2.42941369E-02  0.00000000E+00  0.00000000E+00 -9.38784886E-02  7.23126220E-02
  0.00000000E+00  0.00000000E+00  2.42188668E-02 -4.92556803E-01  0.00000000E+00
  0.00000000E+00  7.12544020E-01  0.00000000E+00 -1.90499934E-01 -6.97368394E-03
  1.19643614E-01  0.00000000E+00  7.96476803E-02  8.75561527E-03 -1.90499934E-01
 -6.97368394E-03  1.19643614E-01  0.00000000E+00 -7.96476803E-02  8.75561527E-03
 -5.82268023E-02 -4.87448435E-02  0.00000000E+00  0.00000000E+00  7.00343321E-01
  1.33196910E-01  0.00000000E+00  0.00000000E+00  4.84064444E-02 -5.98155200E-02
  0.00000000E+00  0.00000000E+00 -4.18210873E-01 -5.54012844E-01  0.00000000E+00
  0.00000000E+00  1.42995152E-02  0.00000000E+00  6.71536657E-02  1.08196858E-03
 -1.80825132E-01  0.00000000E+00 -2.61233143E-01 -3.28995690E-02  6.71536657E-02
  1.08196858E-03 -1.80825132E-01  0.00000000E+00  2.61233143E-01 -3.28995690E-02
 -5.64979722E-02 -4.03475424E-02  0.00000000E+00  0.00000000E+00  9.67295583E-02
  2.35946603E-01  0.00000000E+00  0.00000000E+00 -7.04749920E-02  5.71926377E-02
  0.00000000E+00  0.00000000E+00 -1.01349151E-02  3.49770093E-01  0.00000000E+00
  0.00000000E+00  6.05427577E-01  0.00000000E+00  5.17722232E-01  5.52949019E-02
 -4.09154857E-01  0.00000000E+00  2.27660210E-01  2.33949726E-01  5.17722232E-01