[Molden Format]
[Title]
 xylylene-pople
[Atoms] AU
C    1   6       0.000000000000000206      0.000000000000000206      3.356539419999999829
C    2   6       0.000000000000000546      2.283876699999999982      2.064016679999999937
C    3   6       0.000000000000000391      2.342667469999999863     -0.634838733000000044
C    4   6      -0.000000000000000118     -0.000000000000000118     -1.926570209999999950
C    5   6      -0.000000000000000756     -2.342667469999999863     -0.634838733000000044
C    6   6      -0.000000000000000573     -2.283876699999999982      2.064016679999999937
H    7   1       0.000000000000000331      0.000000000000000331      5.409827899999999801
H    8   1       0.000000000000000935      4.059107700000000207      3.094924549999999996
H    9   1      -0.000000000000000244     -0.000000000000000244     -3.981561310000000020
H   10   1      -0.000000000000001053     -4.059107700000000207      3.094924549999999996
C   11   6      -0.000000000000000972     -4.637738930000000259     -1.952597410000000089
C   12   6       0.000000000000001300      4.637738930000000259     -1.952597410000000089
H   13   1       0.000000000000000615      4.680196800000000046     -4.002041769999999943
H   14   1       0.000000000000001122      6.429178320000000113     -0.956407020999999968
H   15   1      -0.000000000000001678     -4.680196800000000046     -4.002041769999999943
H   16   1      -0.000000000000002027     -6.429178320000000113     -0.956407020999999968

[5D10F]
[GTO]
  1 0
 s    6 1.00
     4563.2400000000         0.0019666503
      682.0240000000         0.0152306019
      154.9730000000         0.0761269097
       44.4553000000         0.2608010330
       13.0290000000         0.6164620780
        1.8277300000         0.2210060280
 s    3 1.00
       20.9642000000         0.1146600810
        4.8033100000         0.9199996480
        1.4593300000        -0.0030306821
 p    3 1.00
       20.9642000000         0.0402486927
        4.8033100000         0.2375939570
        1.4593300000         0.8158538510
 s    1 1.00
        0.4834560000         1.0000000000
 p    1 1.00
        0.4834560000         1.0000000000
 s    1 1.00
        0.1455850000         1.0000000000
 p    1 1.00
        0.1455850000         1.0000000000
 d    1 1.00
        0.6260000000         1.0000000000

  2 0
 s    6 1.00
     4563.2400000000         0.0019666503
      682.0240000000         0.0152306019
      154.9730000000         0.0761269097
       44.4553000000         0.2608010330
       13.0290000000         0.6164620780
        1.8277300000         0.2210060280
 s    3 1.00
       20.9642000000         0.1146600810
        4.8033100000         0.9199996480
        1.4593300000        -0.0030306821
 p    3 1.00
       20.9642000000         0.0402486927
        4.8033100000         0.2375939570
        1.4593300000         0.8158538510
 s    1 1.00
        0.4834560000         1.0000000000
 p    1 1.00
        0.4834560000         1.0000000000
 s    1 1.00
        0.1455850000         1.0000000000
 p    1 1.00
        0.1455850000         1.0000000000
 d    1 1.00
        0.6260000000         1.0000000000

  3 0
 s    6 1.00
     4563.2400000000         0.0019666503
      682.0240000000         0.0152306019
      154.9730000000         0.0761269097
       44.4553000000         0.2608010330
       13.0290000000         0.6164620780
        1.8277300000         0.2210060280
 s    3 1.00
       20.9642000000         0.1146600810
        4.8033100000         0.9199996480
        1.4593300000        -0.0030306821
 p    3 1.00
       20.9642000000         0.0402486927
        4.8033100000         0.2375939570
        1.4593300000         0.8158538510
 s    1 1.00
        0.4834560000         1.0000000000
 p    1 1.00
        0.4834560000         1.0000000000
 s    1 1.00
        0.1455850000         1.0000000000
 p    1 1.00
        0.1455850000         1.0000000000
 d    1 1.00
        0.6260000000         1.0000000000

  4 0
 s    6 1.00
     4563.2400000000         0.0019666503
      682.0240000000         0.0152306019
      154.9730000000         0.0761269097
       44.4553000000         0.2608010330
       13.0290000000         0.6164620780
        1.8277300000         0.2210060280
 s    3 1.00
       20.9642000000         0.1146600810
        4.8033100000         0.9199996480
        1.4593300000        -0.0030306821
 p    3 1.00
       20.9642000000         0.0402486927
        4.8033100000         0.2375939570
        1.4593300000         0.8158538510
 s    1 1.00
        0.4834560000         1.0000000000
 p    1 1.00
        0.4834560000         1.0000000000
 s    1 1.00
        0.1455850000         1.0000000000
 p    1 1.00
        0.1455850000         1.0000000000
 d    1 1.00
        0.6260000000         1.0000000000

  5 0
 s    6 1.00
     4563.2400000000         0.0019666503
      682.0240000000         0.0152306019
      154.9730000000         0.0761269097
       44.4553000000         0.2608010330
       13.0290000000         0.6164620780
        1.8277300000         0.2210060280
 s    3 1.00
       20.9642000000         0.1146600810
        4.8033100000         0.9199996480
        1.4593300000        -0.0030306821
 p    3 1.00
       20.9642000000         0.0402486927
        4.8033100000         0.2375939570
        1.4593300000         0.8158538510
 s    1 1.00
        0.4834560000         1.0000000000
 p    1 1.00
        0.4834560000         1.0000000000
 s    1 1.00
        0.1455850000         1.0000000000
 p    1 1.00
        0.1455850000         1.0000000000
 d    1 1.00
        0.6260000000         1.0000000000

  6 0
 s    6 1.00
     4563.2400000000         0.0019666503
      682.0240000000         0.0152306019
      154.9730000000         0.0761269097
       44.4553000000         0.2608010330
       13.0290000000         0.6164620780
        1.8277300000         0.2210060280
 s    3 1.00
       20.9642000000         0.1146600810
        4.8033100000         0.9199996480
        1.4593300000        -0.0030306821
 p    3 1.00
       20.9642000000         0.0402486927
        4.8033100000         0.2375939570
        1.4593300000         0.8158538510
 s    1 1.00
        0.4834560000         1.0000000000
 p    1 1.00
        0.4834560000         1.0000000000
 s    1 1.00
        0.1455850000         1.0000000000
 p    1 1.00
        0.1455850000         1.0000000000
 d    1 1.00
        0.6260000000         1.0000000000

  7 0
 s    3 1.00
       33.8650000000         0.0254938145
        5.0947900000         0.1903731090
        1.1587900000         0.8521614860
 s    1 1.00
        0.3258400000         1.0000000000
 s    1 1.00
        0.1027410000         1.0000000000
 p    1 1.00
        0.7500000000         1.0000000000

  8 0
 s    3 1.00
       33.8650000000         0.0254938145
        5.0947900000         0.1903731090
        1.1587900000         0.8521614860
 s    1 1.00
        0.3258400000         1.0000000000
 s    1 1.00
        0.1027410000         1.0000000000
 p    1 1.00
        0.7500000000         1.0000000000

  9 0
 s    3 1.00
       33.8650000000         0.0254938145
        5.0947900000         0.1903731090
        1.1587900000         0.8521614860
 s    1 1.00
        0.3258400000         1.0000000000
 s    1 1.00
        0.1027410000         1.0000000000
 p    1 1.00
        0.7500000000         1.0000000000

 10 0
 s    3 1.00
       33.8650000000         0.0254938145
        5.0947900000         0.1903731090
        1.1587900000         0.8521614860
 s    1 1.00
        0.3258400000         1.0000000000
 s    1 1.00
        0.1027410000         1.0000000000
 p    1 1.00
        0.7500000000         1.0000000000

 11 0
 s    6 1.00
     4563.2400000000         0.0019666503
      682.0240000000         0.0152306019
      154.9730000000         0.0761269097
       44.4553000000         0.2608010330
       13.0290000000         0.6164620780
        1.8277300000         0.2210060280
 s    3 1.00
       20.9642000000         0.1146600810
        4.8033100000         0.9199996480
        1.4593300000        -0.0030306821
 p    3 1.00
       20.9642000000         0.0402486927
        4.8033100000         0.2375939570
        1.4593300000         0.8158538510
 s    1 1.00
        0.4834560000         1.0000000000
 p    1 1.00
        0.4834560000         1.0000000000
 s    1 1.00
        0.1455850000         1.0000000000
 p    1 1.00
        0.1455850000         1.0000000000
 d    1 1.00
        0.6260000000         1.0000000000

 12 0
 s    6 1.00
     4563.2400000000         0.0019666503
      682.0240000000         0.0152306019
      154.9730000000         0.0761269097
       44.4553000000         0.2608010330
       13.0290000000         0.6164620780
        1.8277300000         0.2210060280
 s    3 1.00
       20.9642000000         0.1146600810
        4.8033100000         0.9199996480
        1.4593300000        -0.0030306821
 p    3 1.00
       20.9642000000         0.0402486927
        4.8033100000         0.2375939570
        1.4593300000         0.8158538510
 s    1 1.00
        0.4834560000         1.0000000000
 p    1 1.00
        0.4834560000         1.0000000000
 s    1 1.00
        0.1455850000         1.0000000000
 p    1 1.00
        0.1455850000         1.0000000000
 d    1 1.00
        0.6260000000         1.0000000000

 13 0
 s    3 1.00
       33.8650000000         0.0254938145
        5.0947900000         0.1903731090
        1.1587900000         0.8521614860
 s    1 1.00
        0.3258400000         1.0000000000
 s    1 1.00
        0.1027410000         1.0000000000
 p    1 1.00
        0.7500000000         1.0000000000

 14 0
 s    3 1.00
       33.8650000000         0.0254938145
        5.0947900000         0.1903731090
        1.1587900000         0.8521614860
 s    1 1.00
        0.3258400000         1.0000000000
 s    1 1.00
        0.1027410000         1.0000000000
 p    1 1.00
        0.7500000000         1.0000000000

 15 0
 s    3 1.00
       33.8650000000         0.0254938145
        5.0947900000         0.1903731090
        1.1587900000         0.8521614860
 s    1 1.00
        0.3258400000         1.0000000000
 s    1 1.00
        0.1027410000         1.0000000000
 p    1 1.00
        0.7500000000         1.0000000000

 16 0
 s    3 1.00
       33.8650000000         0.0254938145
        5.0947900000         0.1903731090
        1.1587900000         0.8521614860
 s    1 1.00
        0.3258400000         1.0000000000
 s    1 1.00
        0.1027410000         1.0000000000
 p    1 1.00
        0.7500000000         1.0000000000

[MO]
 Ene= -1.02370380000000001e+01
 Sym= 1a
 Spin= Alpha
 Occup= 1.00000000000000000e+00
   1 6.12643943999999978e-04
   2 5.91149389999999974e-04
   3 0.00000000000000000e+00
   4 0.00000000000000000e+00
   5 -8.79662969999999968e-05
   6 -3.41593738999999982e-04
   7 0.00000000000000000e+00
   8 0.00000000000000000e+00
   9 7.33975161999999995e-04
  10 -6.78238119999999988e-05
  11 0.00000000000000000e+00
  12 0.00000000000000000e+00
  13 5.14266723000000024e-04
  14 2.70663207000000020e-04
  15 0.00000000000000000e+00
  16 0.00000000000000000e+00
  17 2.13419773000000012e-04
  18 0.00000000000000000e+00
  19 1.65831009000000015e-02
  20 1.37612090999999995e-02
  21 0.00000000000000000e+00
  22 1.14937326999999998e-06
  23 -5.07099653999999993e-04
  24 1.88252847999999999e-04
  25 0.00000000000000000e+00
  26 1.29507209000000010e-04
  27 1.93762274999999999e-03
  28 1.45801706000000001e-03
  29 0.00000000000000000e+00
  30 -1.53792432999999992e-05
  31 -1.34589165000000011e-03
  32 -9.33651194999999949e-04
  33 0.00000000000000000e+00
  34 2.64214799000000014e-05
  35 -2.49479824000000002e-04
  36 0.00000000000000000e+00
  37 3.96211199000000014e-01
  38 3.25952208999999993e-01
  39 0.00000000000000000e+00
  40 -1.44308541000000008e-04
  41 -1.45035771000000003e-06
  42 1.12518138999999993e-02
  43 0.00000000000000000e+00
  44 7.86227597000000019e-04
  45 -1.95858217000000001e-05
  46 -7.60170588000000022e-03
  47 0.00000000000000000e+00
  48 -8.97810781999999990e-04
  49 5.25663142999999969e-04
  50 5.30388115999999988e-04
  51 0.00000000000000000e+00
  52 -4.57189165999999977e-04
  53 -8.81796341999999947e-04
  54 0.00000000000000000e+00
  55 4.84923765000000034e-02
  56 4.00955492999999982e-02
  57 0.00000000000000000e+00
  58 0.00000000000000000e+00
  59 4.89979217999999975e-04
  60 1.17172765999999998e-03
  61 0.00000000000000000e+00
  62 0.00000000000000000e+00
  63 -1.96766339999999984e-03
  64 1.96232113999999982e-03
  65 0.00000000000000000e+00
  66 0.00000000000000000e+00
  67 7.40028125999999981e-05
  68 5.03324888000000010e-04
  69 0.00000000000000000e+00
  70 0.00000000000000000e+00
  71 9.25081678000000017e-04
  72 0.00000000000000000e+00
  73 3.96211199000000014e-01
  74 3.25952208999999993e-01
  75 0.00000000000000000e+00
  76 1.44308541000000008e-04
  77 -1.45035771000000003e-06
  78 1.12518138999999993e-02
  79 0.00000000000000000e+00
  80 -7.86227597000000019e-04
  81 -1.95858217000000001e-05
  82 -7.60170588000000022e-03
  83 0.00000000000000000e+00
  84 8.97810781999999990e-04
  85 5.25663142999999969e-04
  86 5.30388115999999988e-04
  87 0.00000000000000000e+00
  88 4.57189165999999977e-04
  89 -8.81796341999999947e-04
  90 0.00000000000000000e+00
  91 1.65831009000000015e-02
  92 1.37612090999999995e-02
  93 0.00000000000000000e+00
  94 -1.14937326999999998e-06
  95 -5.07099653999999993e-04
  96 1.88252847999999999e-04
  97 0.00000000000000000e+00
  98 -1.29507209000000010e-04
  99 1.93762274999999999e-03
 100 1.45801706000000001e-03
 101 0.00000000000000000e+00
 102 1.53792432999999992e-05
 103 -1.34589165000000011e-03
 104 -9.33651194999999949e-04
 105 0.00000000000000000e+00
 106 -2.64214799000000014e-05
 107 -2.49479824000000002e-04
 108 0.00000000000000000e+00
 109 -8.20420241999999936e-05
 110 -4.51505758999999997e-04
 111 8.97595206000000045e-05
 112 0.00000000000000000e+00
 113 0.00000000000000000e+00
 114 2.23717689999999994e-04
 115 -8.57541484999999954e-05
 116 -6.65778847999999980e-04
 117 4.43141984999999999e-04
 118 0.00000000000000000e+00
 119 3.10300462000000004e-04
 120 2.61306336000000008e-04
 121 -7.63282000999999970e-05
 122 -1.68640363999999999e-03
 123 5.29549421999999975e-04
 124 0.00000000000000000e+00
 125 0.00000000000000000e+00
 126 -8.08751405000000031e-04
 127 -8.57541484999999954e-05
 128 -6.65778847999999980e-04
 129 4.43141984999999999e-04
 130 0.00000000000000000e+00
 131 -3.10300462000000004e-04
 132 2.61306336000000008e-04
 133 1.51588680000000007e-02
 134 1.26100747999999992e-02
 135 0.00000000000000000e+00
 136 4.65547355000000011e-04
 137 2.64781345999999984e-04
 138 1.51163955000000008e-04
 139 0.00000000000000000e+00
 140 -2.04519184000000014e-03
 141 -1.17254952999999999e-03
 142 2.39313666000000010e-03
 143 0.00000000000000000e+00
 144 1.38221650000000008e-03
 145 4.45098606000000018e-04
 146 3.92688135999999977e-04
 147 0.00000000000000000e+00
 148 -9.99614117999999977e-04
 149 5.61288310000000019e-04
 150 0.00000000000000000e+00
 151 1.51588680000000007e-02
 152 1.26100747999999992e-02
 153 0.00000000000000000e+00
 154 -4.65547355000000011e-04
 155 2.64781345999999984e-04
 156 1.51163955000000008e-04
 157 0.00000000000000000e+00
 158 2.04519184000000014e-03
 159 -1.17254952999999999e-03
 160 2.39313666000000010e-03
 161 0.00000000000000000e+00
 162 -1.38221650000000008e-03
 163 4.45098606000000018e-04
 164 3.92688135999999977e-04
 165 0.00000000000000000e+00
 166 9.99614117999999977e-04
 167 5.61288310000000019e-04
 168 0.00000000000000000e+00
 169 -8.64200473999999976e-05
 170 -9.53449578999999948e-04
 171 2.96317143000000014e-04
 172 0.00000000000000000e+00
 173 8.18549843000000059e-05
 174 -4.68270721000000007e-04
 175 -1.01773997000000004e-04
 176 -7.07860598000000039e-04
 177 4.42836779999999973e-04
 178 0.00000000000000000e+00
 179 4.12246182999999984e-04
 180 1.54295390999999995e-04
 181 -8.64200473999999976e-05
 182 -9.53449578999999948e-04
 183 2.96317143000000014e-04
 184 0.00000000000000000e+00
 185 -8.18549843000000059e-05
 186 -4.68270721000000007e-04
 187 -1.01773997000000004e-04
 188 -7.07860598000000039e-04
 189 4.42836779999999973e-04
 190 0.00000000000000000e+00
 191 -4.12246182999999984e-04
 192 1.54295390999999995e-04
 Ene= -1.02370164999999993e+01
 Sym= 1a
 Spin= Alpha
 Occup= 1.00000000000000000e+00
   1 0.00000000000000000e+00
   2 0.00000000000000000e+00
   3 0.00000000000000000e+00
   4 1.88791369999999987e-04
   5 0.00000000000000000e+00
   6 0.00000000000000000e+00
   7 0.00000000000000000e+00
   8 -1.15908979999999992e-03
   9 0.00000000000000000e+00
  10 0.00000000000000000e+00
  11 0.00000000000000000e+00
  12 9.53051157000000030e-04
  13 0.00000000000000000e+00
  14 0.00000000000000000e+00
  15 0.00000000000000000e+00
  16 5.85901290000000034e-04
  17 0.00000000000000000e+00
  18 0.00000000000000000e+00
  19 1.75333862000000007e-02
  20 1.44648086000000002e-02
  21 0.00000000000000000e+00
  22 5.14802201000000019e-05
  23 -4.76338674999999992e-04
  24 6.95673333000000030e-04
  25 0.00000000000000000e+00
  26 -3.38755658000000019e-04
  27 1.68596684000000001e-03
  28 6.55004737000000029e-04
  29 0.00000000000000000e+00
  30 5.56296800000000017e-04
  31 -1.25146624999999999e-03
  32 -8.97508949999999985e-04
  33 0.00000000000000000e+00
  34 -1.20227484000000003e-04
  35 -2.05653410999999988e-04
  36 0.00000000000000000e+00
  37 3.97657393999999997e-01
  38 3.27054098000000015e-01
  39 0.00000000000000000e+00
  40 7.47509709999999970e-05
  41 7.82550440999999939e-05
  42 1.16138028999999993e-02
  43 0.00000000000000000e+00
  44 -5.22812388999999958e-04
  45 -3.82472100000000000e-04
  46 -6.66363490999999971e-03
  47 0.00000000000000000e+00
  48 8.04107565999999992e-04
  49 -3.34075499999999983e-04
  50 2.67179872000000024e-04
  51 0.00000000000000000e+00
  52 9.72705683000000041e-05
  53 -1.14650850000000003e-03
  54 0.00000000000000000e+00
  55 0.00000000000000000e+00
  56 0.00000000000000000e+00
  57 0.00000000000000000e+00
  58 9.12773431999999978e-04
  59 0.00000000000000000e+00
  60 0.00000000000000000e+00
  61 0.00000000000000000e+00
  62 -3.46300438000000021e-03
  63 0.00000000000000000e+00
  64 0.00000000000000000e+00
  65 0.00000000000000000e+00
  66 2.43298064000000000e-03
  67 0.00000000000000000e+00
  68 0.00000000000000000e+00
  69 0.00000000000000000e+00
  70 -1.66700854999999996e-03
  71 0.00000000000000000e+00
  72 0.00000000000000000e+00
  73 -3.97657393999999997e-01
  74 -3.27054098000000015e-01
  75 0.00000000000000000e+00
  76 7.47509709999999970e-05
  77 -7.82550440999999939e-05
  78 -1.16138028999999993e-02
  79 0.00000000000000000e+00
  80 -5.22812388999999958e-04
  81 3.82472100000000000e-04
  82 6.66363490999999971e-03
  83 0.00000000000000000e+00
  84 8.04107565999999992e-04
  85 3.34075499999999983e-04
  86 -2.67179872000000024e-04
  87 0.00000000000000000e+00
  88 9.72705683000000041e-05
  89 1.14650850000000003e-03
  90 0.00000000000000000e+00
  91 -1.75333862000000007e-02
  92 -1.44648086000000002e-02
  93 0.00000000000000000e+00
  94 5.14802201000000019e-05
  95 4.76338674999999992e-04
  96 -6.95673333000000030e-04
  97 0.00000000000000000e+00
  98 -3.38755658000000019e-04
  99 -1.68596684000000001e-03
 100 -6.55004737000000029e-04
 101 0.00000000000000000e+00
 102 5.56296800000000017e-04
 103 1.25146624999999999e-03
 104 8.97508949999999985e-04
 105 0.00000000000000000e+00
 106 -1.20227484000000003e-04
 107 2.05653410999999988e-04
 108 0.00000000000000000e+00
 109 0.00000000000000000e+00
 110 0.00000000000000000e+00
 111 0.00000000000000000e+00
 112 0.00000000000000000e+00
 113 -4.21360821999999986e-05
 114 0.00000000000000000e+00
 115 4.78683496000000025e-07
 116 -6.16844804000000004e-04
 117 2.40559888999999997e-04
 118 0.00000000000000000e+00
 119 1.92714148999999999e-04
 120 2.10522641999999997e-04
 121 0.00000000000000000e+00
 122 0.00000000000000000e+00
 123 0.00000000000000000e+00
 124 0.00000000000000000e+00
 125 -1.49978372999999993e-04
 126 0.00000000000000000e+00
 127 -4.78683496000000025e-07
 128 6.16844804000000004e-04
 129 -2.40559888999999997e-04
 130 0.00000000000000000e+00
 131 1.92714148999999999e-04
 132 -2.10522641999999997e-04
 133 -1.54845217999999996e-02
 134 -1.28368136999999997e-02
 135 0.00000000000000000e+00
 136 -4.29227921000000022e-04
 137 -2.51620486999999985e-04
 138 -4.56853962000000017e-04
 139 0.00000000000000000e+00
 140 1.72404211000000006e-03
 141 1.00612357999999989e-03
 142 -1.80322850000000004e-04
 143 0.00000000000000000e+00
 144 -1.14782573999999997e-04
 145 -3.69413288000000010e-04
 146 -2.27222275999999996e-04
 147 0.00000000000000000e+00
 148 8.56738736999999992e-04
 149 -5.15902050999999954e-04
 150 0.00000000000000000e+00
 151 1.54845217999999996e-02
 152 1.28368136999999997e-02
 153 0.00000000000000000e+00
 154 -4.29227921000000022e-04
 155 2.51620486999999985e-04
 156 4.56853962000000017e-04
 157 0.00000000000000000e+00
 158 1.72404211000000006e-03
 159 -1.00612357999999989e-03
 160 1.80322850000000004e-04
 161 0.00000000000000000e+00
 162 -1.14782573999999997e-04
 163 3.69413288000000010e-04
 164 2.27222275999999996e-04
 165 0.00000000000000000e+00
 166 8.56738736999999992e-04
 167 5.15902050999999954e-04
 168 0.00000000000000000e+00
 169 -5.42308805999999977e-05
 170 -5.74375626000000008e-04
 171 3.16826032000000013e-04
 172 0.00000000000000000e+00
 173 3.82731167000000029e-05
 174 -3.63219929999999990e-04
 175 -4.57652795999999992e-05
 176 -7.81074583000000038e-04
 177 1.71192170999999991e-04
 178 0.00000000000000000e+00
 179 3.60531672000000006e-04
 180 1.64723828000000000e-04
 181 5.42308805999999977e-05
 182 5.74375626000000008e-04
 183 -3.16826032000000013e-04
 184 0.00000000000000000e+00
 185 3.82731167000000029e-05
 186 3.63219929999999990e-04
 187 4.57652795999999992e-05
 188 7.81074583000000038e-04
 189 -1.71192170999999991e-04
 190 0.00000000000000000e+00
 191 3.60531672000000006e-04
 192 -1.64723828000000000e-04
 Ene= -1.02328799000000004e+01
 Sym= 1a
 Spin= Alpha
 Occup= 1.00000000000000000e+00
   1 -1.17395938999999999e-03
   2 -9.20785272000000025e-04
   3 0.00000000000000000e+00
   4 0.00000000000000000e+00
   5 1.24046257999999994e-05
   6 -4.77542859999999995e-04
   7 0.00000000000000000e+00
   8 0.00000000000000000e+00
   9 3.73506989000000004e-05
  10 8.81207435000000081e-03
  11 0.00000000000000000e+00
  12 0.00000000000000000e+00
  13 -4.28543906000000002e-03
  14 1.12799490999999992e-05
  15 0.00000000000000000e+00
  16 0.00000000000000000e+00
  17 -4.86392037000000029e-05
  18 0.00000000000000000e+00
  19 -7.87459547000000058e-03
  20 -6.46243316000000029e-03
  21 0.00000000000000000e+00
  22 -2.91956485999999997e-05
  23 -1.01431064999999996e-04
  24 -1.56957728000000013e-04
  25 0.00000000000000000e+00
  26 2.26508329000000007e-04
  27 7.61689750999999999e-04
  28 -8.19405565999999953e-03
  29 0.00000000000000000e+00
  30 4.97194167999999957e-03
  31 1.99677773000000005e-03
  32 -2.86083656999999996e-04
  33 0.00000000000000000e+00
  34 2.74549135999999989e-05
  35 -1.55886566000000006e-04
  36 0.00000000000000000e+00
  37 -3.39615095000000006e-02
  38 -2.78008471000000014e-02
  39 0.00000000000000000e+00
  40 -6.66866532000000051e-04
  41 -3.56487233999999991e-04
  42 -1.49311385999999994e-03
  43 0.00000000000000000e+00
  44 2.53317257000000009e-03
  45 1.18112411999999993e-03
  46 1.14963645999999996e-02
  47 0.00000000000000000e+00
  48 -1.18846613000000000e-02
  49 3.20763165999999982e-03
  50 2.84547286000000007e-04
  51 0.00000000000000000e+00
  52 -1.15141874000000005e-03
  53 7.54875167999999991e-04
  54 0.00000000000000000e+00
  55 5.60916085999999980e-01
  56 4.61505396999999984e-01
  57 0.00000000000000000e+00
  58 0.00000000000000000e+00
  59 -3.82761670000000010e-05
  60 1.81363042000000016e-02
  61 0.00000000000000000e+00
  62 0.00000000000000000e+00
  63 -1.48378132999999992e-04
  64 -2.43966185999999995e-02
  65 0.00000000000000000e+00
  66 0.00000000000000000e+00
  67 -1.31516714000000003e-02
  68 7.48686594000000046e-04
  69 0.00000000000000000e+00
  70 0.00000000000000000e+00
  71 -1.18752754000000008e-03
  72 0.00000000000000000e+00
  73 -3.39615095000000006e-02
  74 -2.78008471000000014e-02
  75 0.00000000000000000e+00
  76 6.66866532000000051e-04
  77 -3.56487233999999991e-04
  78 -1.49311385999999994e-03
  79 0.00000000000000000e+00
  80 -2.53317257000000009e-03
  81 1.18112411999999993e-03
  82 1.14963645999999996e-02
  83 0.00000000000000000e+00
  84 1.18846613000000000e-02
  85 3.20763165999999982e-03
  86 2.84547286000000007e-04
  87 0.00000000000000000e+00
  88 1.15141874000000005e-03
  89 7.54875167999999991e-04
  90 0.00000000000000000e+00
  91 -7.87459547000000058e-03
  92 -6.46243316000000029e-03
  93 0.00000000000000000e+00
  94 2.91956485999999997e-05
  95 -1.01431064999999996e-04
  96 -1.56957728000000013e-04
  97 0.00000000000000000e+00
  98 -2.26508329000000007e-04
  99 7.61689750999999999e-04
 100 -8.19405565999999953e-03
 101 0.00000000000000000e+00
 102 -4.97194167999999957e-03
 103 1.99677773000000005e-03
 104 -2.86083656999999996e-04
 105 0.00000000000000000e+00
 106 -2.74549135999999989e-05
 107 -1.55886566000000006e-04
 108 0.00000000000000000e+00
 109 -6.78857441999999964e-05
 110 4.32055922999999981e-04
 111 7.24883023999999964e-04
 112 0.00000000000000000e+00
 113 0.00000000000000000e+00
 114 1.59947371000000007e-05
 115 8.86085801999999991e-06
 116 -8.83162231999999993e-04
 117 -8.63825872000000016e-04
 118 0.00000000000000000e+00
 119 1.07661371000000006e-04
 120 6.75980247000000059e-05
 121 5.31348815999999947e-04
 122 -5.60638345000000031e-03
 123 -5.31400314999999949e-04
 124 0.00000000000000000e+00
 125 0.00000000000000000e+00
 126 -2.19451602000000001e-03
 127 8.86085801999999991e-06
 128 -8.83162231999999993e-04
 129 -8.63825872000000016e-04
 130 0.00000000000000000e+00
 131 -1.07661371000000006e-04
 132 6.75980247000000059e-05
 133 -4.13858315999999973e-03
 134 -3.38332827999999987e-03
 135 0.00000000000000000e+00
 136 2.56635063000000004e-05
 137 1.47187144999999999e-05
 138 -2.12468850999999987e-04
 139 0.00000000000000000e+00
 140 -4.01032581000000015e-04
 141 -1.85827246000000001e-04
 142 5.89153871999999971e-03
 143 0.00000000000000000e+00
 144 1.07193452999999991e-03
 145 1.87264318999999990e-03
 146 2.13924486999999999e-04
 147 0.00000000000000000e+00
 148 -3.07909248000000021e-04
 149 1.00245590000000001e-04
 150 0.00000000000000000e+00
 151 -4.13858315999999973e-03
 152 -3.38332827999999987e-03
 153 0.00000000000000000e+00
 154 -2.56635063000000004e-05
 155 1.47187144999999999e-05
 156 -2.12468850999999987e-04
 157 0.00000000000000000e+00
 158 4.01032581000000015e-04
 159 -1.85827246000000001e-04
 160 5.89153871999999971e-03
 161 0.00000000000000000e+00
 162 -1.07193452999999991e-03
 163 1.87264318999999990e-03
 164 2.13924486999999999e-04
 165 0.00000000000000000e+00
 166 3.07909248000000021e-04
 167 1.00245590000000001e-04
 168 0.00000000000000000e+00
 169 -5.78334471999999994e-05
 170 -8.36837495000000052e-05
 171 1.34788318999999997e-04
 172 0.00000000000000000e+00
 173 8.45005084000000035e-05
 174 -1.16348054000000006e-04
 175 2.08924005000000006e-06
 176 -6.16026343000000026e-04
 177 -1.25323683999999997e-04
 178 0.00000000000000000e+00
 179 1.17532797999999995e-04
 180 3.43845480999999988e-05
 181 -5.78334471999999994e-05
 182 -8.36837495000000052e-05
 183 1.34788318999999997e-04
 184 0.00000000000000000e+00
 185 -8.45005084000000035e-05
 186 -1.16348054000000006e-04
 187 2.08924005000000006e-06
 188 -6.16026343000000026e-04
 189 -1.25323683999999997e-04
 190 0.00000000000000000e+00
 191 -1.17532797999999995e-04
 192 3.43845480999999988e-05
 Ene= -1.02316582000000000e+01
 Sym= 1a
 Spin= Alpha
 Occup= 1.00000000000000000e+00
   1 4.54416477999999985e-02
   2 3.76434563999999972e-02
   3 0.00000000000000000e+00
   4 0.00000000000000000e+00
   5 -4.14969259999999995e-04
   6 3.85999414000000015e-04
   7 0.00000000000000000e+00
   8 0.00000000000000000e+00
   9 1.60450917999999999e-03
  10 1.68107374000000011e-02
  11 0.00000000000000000e+00
  12 0.00000000000000000e+00
  13 -9.72374129999999982e-03
  14 5.32361444000000036e-04
  15 0.00000000000000000e+00
  16 0.00000000000000000e+00
  17 9.76129208999999983e-04
  18 0.00000000000000000e+00
  19 3.96438275000000007e-01
  20 3.26216186999999991e-01
  21 0.00000000000000000e+00
  22 -9.64153315999999994e-05
  23 5.17843616999999996e-05
  24 1.26120711000000003e-02
  25 0.00000000000000000e+00
  26 8.33149010000000002e-04
  27 -8.61206976000000052e-05
  28 -1.96213080000000005e-02
  29 0.00000000000000000e+00
  30 9.63500867000000039e-03
  31 5.43306387000000012e-03
  32 5.21223462000000018e-04
  33 0.00000000000000000e+00
  34 4.12855344999999980e-04
  35 -8.04495052000000024e-04
  36 0.00000000000000000e+00
  37 -1.71225155000000011e-02
  38 -1.39651905000000003e-02
  39 0.00000000000000000e+00
  40 -8.11456884000000050e-05
  41 5.57358746000000040e-04
  42 -1.09427919999999994e-03
  43 0.00000000000000000e+00
  44 5.23613776999999961e-04
  45 -2.12783857999999980e-03
  46 1.17437285999999995e-02
  47 0.00000000000000000e+00
  48 -1.08865991999999995e-02
  49 7.24544352000000037e-03
  50 -9.70336604999999996e-04
  51 0.00000000000000000e+00
  52 -3.23744761999999973e-05
  53 -2.17446831000000005e-04
  54 0.00000000000000000e+00
  55 9.10401913000000000e-03
  56 7.52335167000000010e-03
  57 0.00000000000000000e+00
  58 0.00000000000000000e+00
  59 1.30295860000000004e-04
  60 3.95848535999999995e-04
  61 0.00000000000000000e+00
  62 0.00000000000000000e+00
  63 -9.78190768000000059e-04
  64 -1.37561739999999995e-02
  65 0.00000000000000000e+00
  66 0.00000000000000000e+00
  67 -8.48327584000000030e-03
  68 2.83423635999999993e-04
  69 0.00000000000000000e+00
  70 0.00000000000000000e+00
  71 1.30214118000000013e-04
  72 0.00000000000000000e+00
  73 -1.71225155000000011e-02
  74 -1.39651905000000003e-02